<?xml version="1.0" encoding="UTF-8"?>

<!-- generated on 2026-02-16 17:02:17 by Eclipse SUMO sumo Version 1.24.0
<sumoConfiguration xmlns:xsi="http://www.w3.org/2001/XMLSchema-instance" xsi:noNamespaceSchemaLocation="http://sumo.dlr.de/xsd/sumoConfiguration.xsd">

    <input>
        <net-file value="Info_Cycle_5\../osm.net.xml"/>
        <route-files value="Info_Cycle_5\routes.rou.xml"/>
        <additional-files value="Info_Cycle_5\osm.add.xml,Info_Cycle_5\../osm.type.xml"/>
    </input>

    <output>
        <tripinfo-output value="Info_Cycle_5\tripinfo.xml"/>
    </output>

    <time>
        <begin value="0.0"/>
        <end value="90.0"/>
        <step-length value="0.1"/>
    </time>

    <processing>
        <lateral-resolution value="1.0"/>
        <time-to-teleport value="-1"/>
        <eager-insert value="true"/>
    </processing>

    <report>
        <verbose value="true"/>
        <no-warnings value="False"/>
        <no-step-log value="true"/>
    </report>

    <gui_only>
        <gui-settings-file value="Info_Cycle_5\../osm.view.xml"/>
        <start value="True"/>
    </gui_only>

</sumoConfiguration>
-->

<tripinfos xmlns:xsi="http://www.w3.org/2001/XMLSchema-instance" xsi:noNamespaceSchemaLocation="http://sumo.dlr.de/xsd/tripinfo_file.xsd">
    <tripinfo id="1094" depart="0.00" departLane="207979569#0_0" departPos="34.00" departPosLat="0.00" departSpeed="2.78" departDelay="0.00" arrival="3.40" arrivalLane="207979569#0_0" arrivalPos="65.83" arrivalPosLat="-0.56" arrivalSpeed="15.99" duration="3.40" routeLength="31.83" waitingTime="0.00" waitingCount="0" stopTime="0.00" timeLoss="2.20" rerouteNo="0" devices="tripinfo_1094" vType="Car" speedFactor="1.93" vaporized=""/>
    <tripinfo id="1236" depart="0.00" departLane="207979569#0_4" departPos="8.90" departPosLat="0.00" departSpeed="10.11" departDelay="0.00" arrival="3.90" arrivalLane="207979569#0_4" arrivalPos="65.83" arrivalPosLat="0.79" arrivalSpeed="19.43" duration="3.90" routeLength="56.93" waitingTime="0.00" waitingCount="0" stopTime="0.00" timeLoss="1.51" rerouteNo="0" devices="tripinfo_1236" vType="Motorcycle" speedFactor="1.74" vaporized=""/>
    <tripinfo id="1226" depart="0.00" departLane="207979569#0_2" departPos="9.80" departPosLat="0.00" departSpeed="8.64" departDelay="0.00" arrival="4.20" arrivalLane="207979569#0_3" arrivalPos="65.83" arrivalPosLat="-1.36" arrivalSpeed="18.64" duration="4.20" routeLength="56.03" waitingTime="0.00" waitingCount="0" stopTime="0.00" timeLoss="2.08" rerouteNo="0" devices="tripinfo_1226" vType="Motorcycle" speedFactor="1.94" vaporized=""/>
    <tripinfo id="1255" depart="0.80" departLane="207979569#0_4" departPos="4.40" departPosLat="0.00" departSpeed="9.89" departDelay="0.80" arrival="5.10" arrivalLane="207979569#0_4" arrivalPos="65.83" arrivalPosLat="-0.08" arrivalSpeed="19.07" duration="4.30" routeLength="61.43" waitingTime="0.00" waitingCount="0" stopTime="0.00" timeLoss="1.62" rerouteNo="0" devices="tripinfo_1255" vType="Motorcycle" speedFactor="1.67" vaporized=""/>
    <tripinfo id="1037" depart="0.00" departLane="207979566#1_0" departPos="50.90" departPosLat="0.00" departSpeed="5.17" departDelay="0.00" arrival="5.70" arrivalLane="207979566#1_0" arrivalPos="149.34" arrivalPosLat="-0.62" arrivalSpeed="29.07" duration="5.70" routeLength="98.44" waitingTime="0.00" waitingCount="0" stopTime="0.00" timeLoss="2.50" rerouteNo="0" devices="tripinfo_1037" vType="Medium" speedFactor="1.39" vaporized=""/>
    <tripinfo id="1230" depart="0.00" departLane="23182965#0.13_2" departPos="34.80" departPosLat="0.00" departSpeed="6.61" departDelay="0.00" arrival="8.50" arrivalLane="207979569#0_3" arrivalPos="65.83" arrivalPosLat="-0.98" arrivalSpeed="23.85" duration="8.50" routeLength="140.77" waitingTime="0.00" waitingCount="0" stopTime="0.00" timeLoss="2.57" rerouteNo="0" devices="tripinfo_1230" vType="Motorcycle" speedFactor="1.72" vaporized=""/>
    <tripinfo id="1218" depart="0.00" departLane="23182965#0.13_2" departPos="27.80" departPosLat="0.00" departSpeed="3.56" departDelay="0.00" arrival="8.80" arrivalLane="207979569#0_2" arrivalPos="65.83" arrivalPosLat="-0.07" arrivalSpeed="24.85" duration="8.80" routeLength="147.77" waitingTime="0.00" waitingCount="0" stopTime="0.00" timeLoss="2.79" rerouteNo="0" devices="tripinfo_1218" vType="Car" speedFactor="1.80" vaporized=""/>
    <tripinfo id="49" depart="0.00" departLane="23182965#0.13_4" departPos="34.70" departPosLat="0.00" departSpeed="5.33" departDelay="0.00" arrival="8.90" arrivalLane="207979569#0_4" arrivalPos="65.83" arrivalPosLat="-0.65" arrivalSpeed="26.20" duration="8.90" routeLength="140.87" waitingTime="0.00" waitingCount="0" stopTime="0.00" timeLoss="3.55" rerouteNo="0" devices="tripinfo_49" vType="Motorcycle" speedFactor="1.90" vaporized=""/>
    <tripinfo id="1219" depart="0.00" departLane="23182965#0.13_3" departPos="29.50" departPosLat="0.00" departSpeed="3.61" departDelay="0.00" arrival="9.30" arrivalLane="207979569#0_3" arrivalPos="65.83" arrivalPosLat="0.62" arrivalSpeed="25.79" duration="9.30" routeLength="146.07" waitingTime="0.00" waitingCount="0" stopTime="0.00" timeLoss="3.60" rerouteNo="0" devices="tripinfo_1219" vType="Car" speedFactor="1.86" vaporized=""/>
    <tripinfo id="1183" depart="0.00" departLane="207979566#1_0" departPos="1.60" departPosLat="0.00" departSpeed="3.69" departDelay="0.00" arrival="9.70" arrivalLane="207979566#1_0" arrivalPos="149.34" arrivalPosLat="-0.28" arrivalSpeed="26.30" duration="9.70" routeLength="147.74" waitingTime="0.00" waitingCount="0" stopTime="0.00" timeLoss="6.23" rerouteNo="0" devices="tripinfo_1183" vType="Motorcycle" speedFactor="1.93" vaporized=""/>
    <tripinfo id="1223" depart="0.00" departLane="23182965#0.13_4" departPos="27.40" departPosLat="0.00" departSpeed="1.22" departDelay="0.00" arrival="9.90" arrivalLane="207979569#0_4" arrivalPos="65.83" arrivalPosLat="-0.05" arrivalSpeed="25.28" duration="9.90" routeLength="148.17" waitingTime="0.00" waitingCount="0" stopTime="0.00" timeLoss="4.03" rerouteNo="0" devices="tripinfo_1223" vType="Car" speedFactor="1.83" vaporized=""/>
    <tripinfo id="1126" depart="0.00" departLane="23182965#0.13_1" departPos="21.40" departPosLat="0.00" departSpeed="0.56" departDelay="0.00" arrival="10.30" arrivalLane="207979569#0_1" arrivalPos="65.83" arrivalPosLat="-0.35" arrivalSpeed="19.50" duration="10.30" routeLength="154.17" waitingTime="0.00" waitingCount="0" stopTime="0.00" timeLoss="2.31" rerouteNo="0" devices="tripinfo_1126" vType="Bus" speedFactor="1.40" vaporized=""/>
    <tripinfo id="1175" depart="0.00" departLane="23182965#0.13_2" departPos="15.10" departPosLat="0.00" departSpeed="1.36" departDelay="0.00" arrival="10.40" arrivalLane="207979569#0_2" arrivalPos="65.83" arrivalPosLat="0.19" arrivalSpeed="22.14" duration="10.40" routeLength="160.47" waitingTime="0.00" waitingCount="0" stopTime="0.00" timeLoss="3.16" rerouteNo="0" devices="tripinfo_1175" vType="Bus" speedFactor="1.59" vaporized=""/>
    <tripinfo id="1247" depart="0.00" departLane="23182965#0.13_3" departPos="4.60" departPosLat="0.00" departSpeed="7.00" departDelay="0.00" arrival="10.70" arrivalLane="207979569#0_3" arrivalPos="65.83" arrivalPosLat="1.03" arrivalSpeed="25.30" duration="10.70" routeLength="170.97" waitingTime="0.00" waitingCount="0" stopTime="0.00" timeLoss="3.89" rerouteNo="0" devices="tripinfo_1247" vType="Motorcycle" speedFactor="1.83" vaporized=""/>
    <tripinfo id="1237" depart="0.00" departLane="23182965#0.13_4" departPos="13.40" departPosLat="0.00" departSpeed="0.03" departDelay="0.00" arrival="11.00" arrivalLane="207979569#0_4" arrivalPos="65.83" arrivalPosLat="0.56" arrivalSpeed="26.57" duration="11.00" routeLength="162.17" waitingTime="0.00" waitingCount="0" stopTime="0.00" timeLoss="4.85" rerouteNo="0" devices="tripinfo_1237" vType="Car" speedFactor="1.92" vaporized=""/>
    <tripinfo id="1279" depart="1.30" departLane="23182965#0.13_3" departPos="0.00" departPosLat="0.00" departSpeed="7.53" departDelay="0.70" arrival="12.30" arrivalLane="207979569#0_4" arrivalPos="65.83" arrivalPosLat="-0.15" arrivalSpeed="25.26" duration="11.00" routeLength="175.57" waitingTime="0.00" waitingCount="0" stopTime="0.00" timeLoss="3.99" rerouteNo="0" devices="tripinfo_1279" vType="Motorcycle" speedFactor="1.83" vaporized=""/>
    <tripinfo id="1234" depart="2.50" departLane="23182965#0.13_3" departPos="0.00" departPosLat="0.00" departSpeed="6.81" departDelay="0.30" arrival="12.60" arrivalLane="207979569#0_3" arrivalPos="65.83" arrivalPosLat="0.39" arrivalSpeed="27.57" duration="10.10" routeLength="175.57" waitingTime="0.00" waitingCount="0" stopTime="0.00" timeLoss="3.69" rerouteNo="0" devices="tripinfo_1234" vType="Car" speedFactor="1.99" vaporized=""/>
    <tripinfo id="1229" depart="2.80" departLane="23182965#0.13_4" departPos="20.50" departPosLat="0.00" departSpeed="0.11" departDelay="2.80" arrival="13.10" arrivalLane="207979569#0_4" arrivalPos="65.83" arrivalPosLat="0.29" arrivalSpeed="26.00" duration="10.30" routeLength="155.07" waitingTime="0.00" waitingCount="0" stopTime="0.00" timeLoss="4.60" rerouteNo="0" devices="tripinfo_1229" vType="Car" speedFactor="1.98" vaporized=""/>
    <tripinfo id="1233" depart="2.40" departLane="23182965#0.13_2" departPos="0.00" departPosLat="0.00" departSpeed="2.56" departDelay="0.00" arrival="13.60" arrivalLane="207979569#0_3" arrivalPos="65.83" arrivalPosLat="0.31" arrivalSpeed="27.08" duration="11.20" routeLength="175.57" waitingTime="0.00" waitingCount="0" stopTime="0.00" timeLoss="4.70" rerouteNo="0" devices="tripinfo_1233" vType="Car" speedFactor="1.96" vaporized=""/>
    <tripinfo id="1197" depart="0.00" departLane="23182965#0.13_0" departPos="6.60" departPosLat="0.00" departSpeed="0.14" departDelay="0.00" arrival="14.40" arrivalLane="207979566#1_0" arrivalPos="149.34" arrivalPosLat="-0.58" arrivalSpeed="36.73" duration="14.40" routeLength="246.91" waitingTime="0.00" waitingCount="0" stopTime="0.00" timeLoss="5.78" rerouteNo="0" devices="tripinfo_1197" vType="Medium" speedFactor="1.68" vaporized=""/>
    <tripinfo id="1242" depart="4.60" departLane="23182965#0.13_3" departPos="0.00" departPosLat="0.00" departSpeed="6.33" departDelay="0.00" arrival="14.60" arrivalLane="207979569#0_3" arrivalPos="65.83" arrivalPosLat="-0.66" arrivalSpeed="27.55" duration="10.00" routeLength="175.57" waitingTime="0.00" waitingCount="0" stopTime="0.00" timeLoss="3.63" rerouteNo="0" devices="tripinfo_1242" vType="Car" speedFactor="1.99" vaporized=""/>
    <tripinfo id="1238" depart="3.70" departLane="23182965#0.13_4" departPos="0.00" departPosLat="0.00" departSpeed="5.44" departDelay="0.50" arrival="14.80" arrivalLane="207979569#0_3" arrivalPos="65.83" arrivalPosLat="1.29" arrivalSpeed="25.11" duration="11.10" routeLength="175.57" waitingTime="0.00" waitingCount="0" stopTime="0.00" timeLoss="4.13" rerouteNo="0" devices="tripinfo_1238" vType="Taxi" speedFactor="1.82" vaporized=""/>
    <tripinfo id="1228" depart="6.80" departLane="23182965#0.13_4" departPos="36.20" departPosLat="0.00" departSpeed="4.47" departDelay="6.80" arrival="16.00" arrivalLane="207979569#0_4" arrivalPos="65.83" arrivalPosLat="0.31" arrivalSpeed="26.01" duration="9.20" routeLength="139.37" waitingTime="0.00" waitingCount="0" stopTime="0.00" timeLoss="3.78" rerouteNo="0" devices="tripinfo_1228" vType="Motorcycle" speedFactor="1.88" vaporized=""/>
    <tripinfo id="1191" depart="5.00" departLane="23182965#0.13_1" departPos="0.00" departPosLat="0.00" departSpeed="4.75" departDelay="0.00" arrival="16.10" arrivalLane="207979569#0_2" arrivalPos="65.83" arrivalPosLat="-1.02" arrivalSpeed="18.12" duration="11.10" routeLength="175.57" waitingTime="0.00" waitingCount="0" stopTime="0.00" timeLoss="1.37" rerouteNo="0" devices="tripinfo_1191" vType="Bus" speedFactor="1.30" vaporized=""/>
    <tripinfo id="1273" depart="6.40" departLane="23182965#0.13_3" departPos="0.00" departPosLat="0.00" departSpeed="5.78" departDelay="0.00" arrival="16.10" arrivalLane="207979569#0_3" arrivalPos="65.83" arrivalPosLat="-0.10" arrivalSpeed="25.26" duration="9.70" routeLength="175.57" waitingTime="0.00" waitingCount="0" stopTime="0.00" timeLoss="2.76" rerouteNo="0" devices="tripinfo_1273" vType="Car" speedFactor="1.82" vaporized=""/>
    <tripinfo id="1244" depart="5.50" departLane="23182965#0.13_4" departPos="0.00" departPosLat="0.00" departSpeed="5.67" departDelay="0.10" arrival="17.00" arrivalLane="207979569#0_4" arrivalPos="65.83" arrivalPosLat="0.41" arrivalSpeed="25.13" duration="11.50" routeLength="175.57" waitingTime="0.00" waitingCount="0" stopTime="0.00" timeLoss="4.53" rerouteNo="0" devices="tripinfo_1244" vType="Car" speedFactor="1.82" vaporized=""/>
    <tripinfo id="1222" depart="8.30" departLane="23182965#0.13_2" departPos="19.30" departPosLat="0.00" departSpeed="2.06" departDelay="8.30" arrival="18.00" arrivalLane="207979569#0_2" arrivalPos="65.83" arrivalPosLat="0.69" arrivalSpeed="26.61" duration="9.70" routeLength="156.27" waitingTime="0.00" waitingCount="0" stopTime="0.00" timeLoss="3.80" rerouteNo="0" devices="tripinfo_1222" vType="Car" speedFactor="1.92" vaporized=""/>
    <tripinfo id="1243" depart="8.40" departLane="23182965#0.13_4" departPos="0.00" departPosLat="0.00" departSpeed="5.64" departDelay="0.00" arrival="18.20" arrivalLane="207979569#0_4" arrivalPos="65.83" arrivalPosLat="0.44" arrivalSpeed="27.63" duration="9.80" routeLength="175.57" waitingTime="0.00" waitingCount="0" stopTime="0.00" timeLoss="3.44" rerouteNo="0" devices="tripinfo_1243" vType="Car" speedFactor="2.00" vaporized=""/>
    <tripinfo id="1250" depart="8.60" departLane="23182965#0.13_3" departPos="11.40" departPosLat="0.00" departSpeed="5.33" departDelay="8.60" arrival="18.60" arrivalLane="207979569#0_4" arrivalPos="65.83" arrivalPosLat="-1.35" arrivalSpeed="24.63" duration="10.00" routeLength="164.17" waitingTime="0.00" waitingCount="0" stopTime="0.00" timeLoss="3.31" rerouteNo="0" devices="tripinfo_1250" vType="Motorcycle" speedFactor="1.78" vaporized=""/>
    <tripinfo id="1259" depart="9.80" departLane="23182965#0.13_1" departPos="0.00" departPosLat="0.00" departSpeed="8.00" departDelay="0.00" arrival="19.00" arrivalLane="207979569#0_1" arrivalPos="65.83" arrivalPosLat="-0.66" arrivalSpeed="25.73" duration="9.20" routeLength="175.57" waitingTime="0.00" waitingCount="0" stopTime="0.00" timeLoss="2.34" rerouteNo="0" devices="tripinfo_1259" vType="Taxi" speedFactor="1.86" vaporized=""/>
    <tripinfo id="1298" depart="10.00" departLane="23182965#0.13_2" departPos="0.00" departPosLat="0.00" departSpeed="9.28" departDelay="0.00" arrival="19.10" arrivalLane="207979569#0_2" arrivalPos="65.83" arrivalPosLat="0.45" arrivalSpeed="27.39" duration="9.10" routeLength="175.57" waitingTime="0.00" waitingCount="0" stopTime="0.00" timeLoss="2.71" rerouteNo="0" devices="tripinfo_1298" vType="Car" speedFactor="1.98" vaporized=""/>
    <tripinfo id="1299" depart="10.20" departLane="23182965#0.13_4" departPos="0.00" departPosLat="0.00" departSpeed="8.44" departDelay="1.80" arrival="19.80" arrivalLane="207979569#0_4" arrivalPos="65.83" arrivalPosLat="-0.41" arrivalSpeed="25.10" duration="9.60" routeLength="175.57" waitingTime="0.00" waitingCount="0" stopTime="0.00" timeLoss="2.60" rerouteNo="0" devices="tripinfo_1299" vType="Motorcycle" speedFactor="1.81" vaporized=""/>
    <tripinfo id="1245" depart="11.10" departLane="23182965#0.13_4" departPos="0.00" departPosLat="0.00" departSpeed="7.81" departDelay="0.50" arrival="20.90" arrivalLane="207979569#0_4" arrivalPos="65.83" arrivalPosLat="-0.16" arrivalSpeed="25.65" duration="9.80" routeLength="175.57" waitingTime="0.00" waitingCount="0" stopTime="0.00" timeLoss="2.90" rerouteNo="0" devices="tripinfo_1245" vType="Car" speedFactor="1.86" vaporized=""/>
    <tripinfo id="1266" depart="9.70" departLane="23182965#0.13_3" departPos="0.00" departPosLat="0.00" departSpeed="6.81" departDelay="0.10" arrival="21.10" arrivalLane="207979569#0_3" arrivalPos="65.83" arrivalPosLat="-0.64" arrivalSpeed="18.60" duration="11.40" routeLength="175.57" waitingTime="0.00" waitingCount="0" stopTime="0.00" timeLoss="1.98" rerouteNo="0" devices="tripinfo_1266" vType="Medium" speedFactor="1.34" vaporized=""/>
    <tripinfo id="1309" depart="12.80" departLane="23182965#0.13_4" departPos="0.00" departPosLat="0.00" departSpeed="7.78" departDelay="0.00" arrival="22.00" arrivalLane="207979569#0_4" arrivalPos="65.83" arrivalPosLat="0.50" arrivalSpeed="27.12" duration="9.20" routeLength="175.57" waitingTime="0.00" waitingCount="0" stopTime="0.00" timeLoss="2.68" rerouteNo="0" devices="tripinfo_1309" vType="Car" speedFactor="1.96" vaporized=""/>
    <tripinfo id="1358" depart="10.90" departLane="23182965#0.13_2" departPos="0.00" departPosLat="0.00" departSpeed="9.03" departDelay="0.50" arrival="22.50" arrivalLane="207979569#0_3" arrivalPos="65.83" arrivalPosLat="-0.43" arrivalSpeed="20.83" duration="11.60" routeLength="175.57" waitingTime="0.00" waitingCount="0" stopTime="0.00" timeLoss="4.29" rerouteNo="0" devices="tripinfo_1358" vType="Motorcycle" speedFactor="1.73" vaporized=""/>
    <tripinfo id="1303" depart="12.20" departLane="23182965#0.13_2" departPos="0.00" departPosLat="0.00" departSpeed="7.81" departDelay="0.00" arrival="22.80" arrivalLane="207979569#0_2" arrivalPos="65.83" arrivalPosLat="0.22" arrivalSpeed="23.17" duration="10.60" routeLength="175.57" waitingTime="0.00" waitingCount="0" stopTime="0.00" timeLoss="3.00" rerouteNo="0" devices="tripinfo_1303" vType="Taxi" speedFactor="1.68" vaporized=""/>
    <tripinfo id="1232" depart="12.80" departLane="23182965#0.13_3" departPos="20.80" departPosLat="0.00" departSpeed="1.69" departDelay="12.80" arrival="23.60" arrivalLane="207979569#0_3" arrivalPos="65.83" arrivalPosLat="-0.69" arrivalSpeed="23.69" duration="10.80" routeLength="154.77" waitingTime="0.00" waitingCount="0" stopTime="0.00" timeLoss="4.78" rerouteNo="0" devices="tripinfo_1232" vType="Car" speedFactor="1.85" vaporized=""/>
    <tripinfo id="1316" depart="14.40" departLane="23182965#0.13_4" departPos="4.90" departPosLat="0.00" departSpeed="10.69" departDelay="14.40" arrival="23.60" arrivalLane="207979569#0_4" arrivalPos="65.83" arrivalPosLat="0.63" arrivalSpeed="21.81" duration="9.20" routeLength="170.67" waitingTime="0.00" waitingCount="0" stopTime="0.00" timeLoss="1.42" rerouteNo="0" devices="tripinfo_1316" vType="Motorcycle" speedFactor="1.58" vaporized=""/>
    <tripinfo id="1351" depart="14.80" departLane="23182965#0.13_2" departPos="0.00" departPosLat="0.00" departSpeed="8.50" departDelay="0.80" arrival="24.70" arrivalLane="207979569#0_2" arrivalPos="65.83" arrivalPosLat="-0.06" arrivalSpeed="24.92" duration="9.90" routeLength="175.57" waitingTime="0.00" waitingCount="0" stopTime="0.00" timeLoss="2.87" rerouteNo="0" devices="tripinfo_1351" vType="Taxi" speedFactor="1.81" vaporized=""/>
    <tripinfo id="1350" depart="16.20" departLane="23182965#0.13_4" departPos="0.00" departPosLat="0.00" departSpeed="14.44" departDelay="11.20" arrival="24.80" arrivalLane="207979569#0_4" arrivalPos="65.83" arrivalPosLat="-0.23" arrivalSpeed="22.75" duration="8.60" routeLength="175.57" waitingTime="0.00" waitingCount="0" stopTime="0.00" timeLoss="0.92" rerouteNo="0" devices="tripinfo_1350" vType="Motorcycle" speedFactor="1.65" vaporized=""/>
    <tripinfo id="1338" depart="13.40" departLane="23182965#0.13_3" departPos="0.00" departPosLat="0.00" departSpeed="7.22" departDelay="0.00" arrival="24.80" arrivalLane="207979569#0_3" arrivalPos="65.83" arrivalPosLat="-0.17" arrivalSpeed="26.69" duration="11.40" routeLength="175.57" waitingTime="0.00" waitingCount="0" stopTime="0.00" timeLoss="4.75" rerouteNo="0" devices="tripinfo_1338" vType="Car" speedFactor="1.92" vaporized=""/>
    <tripinfo id="1286" depart="15.60" departLane="23182965#0.13_1" departPos="0.00" departPosLat="0.00" departSpeed="6.78" departDelay="0.00" arrival="25.30" arrivalLane="207979569#0_1" arrivalPos="65.83" arrivalPosLat="-0.23" arrivalSpeed="20.55" duration="9.70" routeLength="175.57" waitingTime="0.00" waitingCount="0" stopTime="0.00" timeLoss="1.15" rerouteNo="0" devices="tripinfo_1286" vType="Bus" speedFactor="1.48" vaporized=""/>
    <tripinfo id="1314" depart="15.00" departLane="23182965#0.13_3" departPos="0.00" departPosLat="0.00" departSpeed="6.67" departDelay="0.00" arrival="25.80" arrivalLane="207979569#0_3" arrivalPos="65.83" arrivalPosLat="-0.52" arrivalSpeed="27.60" duration="10.80" routeLength="175.57" waitingTime="0.00" waitingCount="0" stopTime="0.00" timeLoss="4.40" rerouteNo="0" devices="tripinfo_1314" vType="Car" speedFactor="1.99" vaporized=""/>
    <tripinfo id="1340" depart="16.60" departLane="23182965#0.13_4" departPos="0.00" departPosLat="0.00" departSpeed="10.78" departDelay="0.00" arrival="25.90" arrivalLane="207979569#0_4" arrivalPos="65.83" arrivalPosLat="0.32" arrivalSpeed="25.40" duration="9.30" routeLength="175.57" waitingTime="0.00" waitingCount="0" stopTime="0.00" timeLoss="2.90" rerouteNo="0" devices="tripinfo_1340" vType="Car" speedFactor="1.99" vaporized=""/>
    <tripinfo id="1355" depart="16.80" departLane="23182965#0.13_3" departPos="0.00" departPosLat="0.00" departSpeed="7.11" departDelay="0.00" arrival="26.90" arrivalLane="207979569#0_3" arrivalPos="65.83" arrivalPosLat="0.35" arrivalSpeed="25.90" duration="10.10" routeLength="175.57" waitingTime="0.00" waitingCount="0" stopTime="0.00" timeLoss="3.31" rerouteNo="0" devices="tripinfo_1355" vType="Car" speedFactor="1.87" vaporized=""/>
    <tripinfo id="1363" depart="16.50" departLane="23182965#0.13_2" departPos="0.00" departPosLat="0.00" departSpeed="9.33" departDelay="1.10" arrival="27.00" arrivalLane="207979569#0_1" arrivalPos="65.83" arrivalPosLat="1.13" arrivalSpeed="22.63" duration="10.50" routeLength="175.57" waitingTime="0.00" waitingCount="0" stopTime="0.00" timeLoss="3.55" rerouteNo="0" devices="tripinfo_1363" vType="Motorcycle" speedFactor="1.84" vaporized=""/>
    <tripinfo id="1392" depart="18.50" departLane="23182965#0.13_4" departPos="0.00" departPosLat="0.00" departSpeed="14.81" departDelay="4.50" arrival="27.30" arrivalLane="207979569#0_4" arrivalPos="65.83" arrivalPosLat="0.07" arrivalSpeed="24.96" duration="8.80" routeLength="175.57" waitingTime="0.00" waitingCount="0" stopTime="0.00" timeLoss="1.72" rerouteNo="0" devices="tripinfo_1392" vType="Motorcycle" speedFactor="1.80" vaporized=""/>
    <tripinfo id="1382" depart="18.10" departLane="23182965#0.13_2" departPos="0.00" departPosLat="0.00" departSpeed="11.28" departDelay="1.30" arrival="27.40" arrivalLane="207979569#0_2" arrivalPos="65.83" arrivalPosLat="-0.18" arrivalSpeed="21.90" duration="9.30" routeLength="175.57" waitingTime="0.00" waitingCount="0" stopTime="0.00" timeLoss="1.31" rerouteNo="0" devices="tripinfo_1382" vType="Motorcycle" speedFactor="1.59" vaporized=""/>
    <tripinfo id="1383" depart="19.80" departLane="23182965#0.13_4" departPos="0.00" departPosLat="0.00" departSpeed="15.97" departDelay="6.00" arrival="28.40" arrivalLane="207979569#0_4" arrivalPos="65.83" arrivalPosLat="0.99" arrivalSpeed="25.14" duration="8.60" routeLength="175.57" waitingTime="0.00" waitingCount="0" stopTime="0.00" timeLoss="1.85" rerouteNo="0" devices="tripinfo_1383" vType="Motorcycle" speedFactor="1.89" vaporized=""/>
    <tripinfo id="1367" depart="19.80" departLane="23182965#0.13_2" departPos="0.00" departPosLat="0.00" departSpeed="9.03" departDelay="0.00" arrival="28.70" arrivalLane="207979569#0_2" arrivalPos="65.83" arrivalPosLat="-0.50" arrivalSpeed="26.09" duration="8.90" routeLength="175.57" waitingTime="0.00" waitingCount="0" stopTime="0.00" timeLoss="2.18" rerouteNo="0" devices="tripinfo_1367" vType="Car" speedFactor="1.88" vaporized=""/>
    <tripinfo id="1408" depart="20.70" departLane="23182965#0.13_4" departPos="0.00" departPosLat="0.00" departSpeed="14.53" departDelay="0.70" arrival="29.50" arrivalLane="207979569#0_4" arrivalPos="65.83" arrivalPosLat="0.87" arrivalSpeed="26.29" duration="8.80" routeLength="175.57" waitingTime="0.00" waitingCount="0" stopTime="0.00" timeLoss="2.42" rerouteNo="0" devices="tripinfo_1408" vType="Motorcycle" speedFactor="1.98" vaporized=""/>
    <tripinfo id="1239" depart="19.80" departLane="23182965#0.13_3" departPos="25.80" departPosLat="0.00" departSpeed="2.39" departDelay="19.80" arrival="30.30" arrivalLane="207979569#0_3" arrivalPos="65.83" arrivalPosLat="-0.03" arrivalSpeed="25.47" duration="10.50" routeLength="149.77" waitingTime="0.00" waitingCount="0" stopTime="0.00" timeLoss="4.61" rerouteNo="0" devices="tripinfo_1239" vType="Motorcycle" speedFactor="1.84" vaporized=""/>
    <tripinfo id="1410" depart="21.80" departLane="23182965#0.13_4" departPos="0.00" departPosLat="0.00" departSpeed="14.61" departDelay="1.00" arrival="30.80" arrivalLane="207979569#0_4" arrivalPos="65.83" arrivalPosLat="0.94" arrivalSpeed="24.63" duration="9.00" routeLength="175.57" waitingTime="0.00" waitingCount="0" stopTime="0.00" timeLoss="1.79" rerouteNo="0" devices="tripinfo_1410" vType="Motorcycle" speedFactor="1.78" vaporized=""/>
    <tripinfo id="1384" depart="21.00" departLane="23182965#0.13_3" departPos="0.00" departPosLat="0.00" departSpeed="10.03" departDelay="0.00" arrival="31.40" arrivalLane="207979569#0_3" arrivalPos="65.83" arrivalPosLat="0.46" arrivalSpeed="26.74" duration="10.40" routeLength="175.57" waitingTime="0.00" waitingCount="0" stopTime="0.00" timeLoss="3.81" rerouteNo="0" devices="tripinfo_1384" vType="Car" speedFactor="1.94" vaporized=""/>
    <tripinfo id="1326" depart="23.00" departLane="23182965#0.13_1" departPos="0.00" departPosLat="0.00" departSpeed="7.42" departDelay="0.00" arrival="31.70" arrivalLane="207979569#0_1" arrivalPos="65.83" arrivalPosLat="0.15" arrivalSpeed="24.42" duration="8.70" routeLength="175.57" waitingTime="0.00" waitingCount="0" stopTime="0.00" timeLoss="1.48" rerouteNo="0" devices="tripinfo_1326" vType="Bus" speedFactor="1.76" vaporized=""/>
    <tripinfo id="1401" depart="24.80" departLane="23182965#0.13_2" departPos="0.00" departPosLat="0.00" departSpeed="11.64" departDelay="0.00" arrival="32.80" arrivalLane="207979569#0_2" arrivalPos="65.83" arrivalPosLat="0.68" arrivalSpeed="25.31" duration="8.00" routeLength="175.57" waitingTime="0.00" waitingCount="0" stopTime="0.00" timeLoss="1.04" rerouteNo="0" devices="tripinfo_1401" vType="Taxi" speedFactor="1.83" vaporized=""/>
    <tripinfo id="1372" depart="23.50" departLane="23182965#0.13_3" departPos="0.00" departPosLat="0.00" departSpeed="10.44" departDelay="1.10" arrival="34.10" arrivalLane="207979569#0_4" arrivalPos="65.83" arrivalPosLat="0.67" arrivalSpeed="18.45" duration="10.60" routeLength="175.57" waitingTime="0.00" waitingCount="0" stopTime="0.00" timeLoss="1.05" rerouteNo="0" devices="tripinfo_1372" vType="Medium" speedFactor="1.33" vaporized=""/>
    <tripinfo id="1369" depart="27.20" departLane="23182965#0.13_3" departPos="0.00" departPosLat="0.00" departSpeed="12.86" departDelay="0.00" arrival="34.60" arrivalLane="207979569#0_3" arrivalPos="65.83" arrivalPosLat="0.06" arrivalSpeed="27.72" duration="7.40" routeLength="175.57" waitingTime="0.00" waitingCount="0" stopTime="0.00" timeLoss="1.00" rerouteNo="0" devices="tripinfo_1369" vType="Car" speedFactor="2.00" vaporized=""/>
    <tripinfo id="1345" depart="26.80" departLane="23182965#0.13_1" departPos="0.00" departPosLat="0.00" departSpeed="8.36" departDelay="0.00" arrival="35.10" arrivalLane="207979569#0_1" arrivalPos="65.83" arrivalPosLat="-0.68" arrivalSpeed="26.31" duration="8.30" routeLength="175.57" waitingTime="0.00" waitingCount="0" stopTime="0.00" timeLoss="1.59" rerouteNo="0" devices="tripinfo_1345" vType="Car" speedFactor="1.90" vaporized=""/>
    <tripinfo id="1409" depart="26.20" departLane="23182965#0.13_4" departPos="0.00" departPosLat="0.00" departSpeed="13.47" departDelay="0.00" arrival="35.60" arrivalLane="207979569#0_4" arrivalPos="65.83" arrivalPosLat="0.47" arrivalSpeed="24.47" duration="9.40" routeLength="175.57" waitingTime="0.00" waitingCount="0" stopTime="0.00" timeLoss="2.43" rerouteNo="0" devices="tripinfo_1409" vType="Car" speedFactor="1.84" vaporized=""/>
    <tripinfo id="1422" depart="29.00" departLane="23182965#0.13_3" departPos="0.00" departPosLat="0.00" departSpeed="12.72" departDelay="0.00" arrival="36.60" arrivalLane="207979569#0_3" arrivalPos="65.83" arrivalPosLat="-0.55" arrivalSpeed="26.67" duration="7.60" routeLength="175.57" waitingTime="0.00" waitingCount="0" stopTime="0.00" timeLoss="0.98" rerouteNo="0" devices="tripinfo_1422" vType="Car" speedFactor="1.92" vaporized=""/>
    <tripinfo id="1416" depart="28.00" departLane="23182965#0.13_4" departPos="0.00" departPosLat="0.00" departSpeed="11.67" departDelay="0.00" arrival="37.40" arrivalLane="207979569#0_4" arrivalPos="65.83" arrivalPosLat="0.39" arrivalSpeed="26.55" duration="9.40" routeLength="175.57" waitingTime="0.00" waitingCount="0" stopTime="0.00" timeLoss="2.84" rerouteNo="0" devices="tripinfo_1416" vType="Taxi" speedFactor="1.93" vaporized=""/>
    <tripinfo id="1387" depart="29.60" departLane="23182965#0.13_1" departPos="0.00" departPosLat="0.00" departSpeed="8.06" departDelay="0.00" arrival="37.70" arrivalLane="207979569#0_1" arrivalPos="65.83" arrivalPosLat="-0.51" arrivalSpeed="27.44" duration="8.10" routeLength="175.57" waitingTime="0.00" waitingCount="0" stopTime="0.00" timeLoss="1.74" rerouteNo="0" devices="tripinfo_1387" vType="Taxi" speedFactor="1.99" vaporized=""/>
    <tripinfo id="1360" depart="30.40" departLane="23182965#0.13_3" departPos="0.00" departPosLat="0.00" departSpeed="13.56" departDelay="0.00" arrival="38.80" arrivalLane="207979569#0_4" arrivalPos="65.83" arrivalPosLat="0.35" arrivalSpeed="27.73" duration="8.40" routeLength="175.57" waitingTime="0.00" waitingCount="0" stopTime="0.00" timeLoss="2.01" rerouteNo="0" devices="tripinfo_1360" vType="Car" speedFactor="2.00" vaporized=""/>