<?xml version="1.0" encoding="UTF-8"?>

<!-- generated on 2026-02-16 17:02:17 by Eclipse SUMO sumo Version 1.24.0
<sumoConfiguration xmlns:xsi="http://www.w3.org/2001/XMLSchema-instance" xsi:noNamespaceSchemaLocation="http://sumo.dlr.de/xsd/sumoConfiguration.xsd">

    <input>
        <net-file value="Info_Cycle_3\../osm.net.xml"/>
        <route-files value="Info_Cycle_3\routes.rou.xml"/>
        <additional-files value="Info_Cycle_3\osm.add.xml,Info_Cycle_3\../osm.type.xml"/>
    </input>

    <output>
        <tripinfo-output value="Info_Cycle_3\tripinfo.xml"/>
    </output>

    <time>
        <begin value="0.0"/>
        <end value="90.0"/>
        <step-length value="0.1"/>
    </time>

    <processing>
        <lateral-resolution value="1.0"/>
        <time-to-teleport value="-1"/>
        <eager-insert value="true"/>
    </processing>

    <report>
        <verbose value="true"/>
        <no-warnings value="False"/>
        <no-step-log value="true"/>
    </report>

    <gui_only>
        <gui-settings-file value="Info_Cycle_3\../osm.view.xml"/>
        <start value="True"/>
    </gui_only>

</sumoConfiguration>
-->

<tripinfos xmlns:xsi="http://www.w3.org/2001/XMLSchema-instance" xsi:noNamespaceSchemaLocation="http://sumo.dlr.de/xsd/tripinfo_file.xsd">
    <tripinfo id="732" depart="0.00" departLane="207979569#0_0" departPos="36.70" departPosLat="0.00" departSpeed="7.81" departDelay="0.00" arrival="2.70" arrivalLane="207979569#0_0" arrivalPos="65.83" arrivalPosLat="-0.27" arrivalSpeed="13.75" duration="2.70" routeLength="29.13" waitingTime="0.00" waitingCount="0" stopTime="0.00" timeLoss="1.60" rerouteNo="0" devices="tripinfo_732" vType="Motorcycle" speedFactor="1.95" vaporized=""/>
    <tripinfo id="677" depart="0.00" departLane="207979569#0_4" departPos="4.40" departPosLat="0.00" departSpeed="7.03" departDelay="0.00" arrival="4.80" arrivalLane="207979569#0_4" arrivalPos="65.83" arrivalPosLat="1.14" arrivalSpeed="18.12" duration="4.80" routeLength="61.43" waitingTime="0.00" waitingCount="0" stopTime="0.00" timeLoss="2.25" rerouteNo="0" devices="tripinfo_677" vType="Motorcycle" speedFactor="1.74" vaporized=""/>
    <tripinfo id="437" depart="0.00" departLane="207979566#1_0" departPos="51.00" departPosLat="0.00" departSpeed="4.00" departDelay="0.00" arrival="6.00" arrivalLane="207979566#1_0" arrivalPos="149.34" arrivalPosLat="-0.39" arrivalSpeed="28.90" duration="6.00" routeLength="98.34" waitingTime="0.00" waitingCount="0" stopTime="0.00" timeLoss="3.74" rerouteNo="0" devices="tripinfo_437" vType="Medium" speedFactor="1.99" vaporized=""/>
    <tripinfo id="447" depart="0.00" departLane="207979566#1_0" departPos="32.60" departPosLat="0.00" departSpeed="3.39" departDelay="0.00" arrival="7.60" arrivalLane="207979566#1_0" arrivalPos="149.34" arrivalPosLat="-0.64" arrivalSpeed="28.68" duration="7.60" routeLength="116.74" waitingTime="0.00" waitingCount="0" stopTime="0.00" timeLoss="4.88" rerouteNo="0" devices="tripinfo_447" vType="Taxi" speedFactor="1.98" vaporized=""/>
    <tripinfo id="79" depart="0.00" departLane="23182965#0.13_1" departPos="33.50" departPosLat="0.00" departSpeed="5.14" departDelay="0.00" arrival="7.80" arrivalLane="207979569#0_2" arrivalPos="65.83" arrivalPosLat="-1.35" arrivalSpeed="24.34" duration="7.80" routeLength="142.07" waitingTime="0.00" waitingCount="0" stopTime="0.00" timeLoss="1.96" rerouteNo="0" devices="tripinfo_79" vType="Taxi" speedFactor="1.76" vaporized=""/>
    <tripinfo id="674" depart="0.00" departLane="23182965#0.13_3" departPos="31.70" departPosLat="0.00" departSpeed="4.03" departDelay="0.00" arrival="7.80" arrivalLane="207979569#0_3" arrivalPos="65.83" arrivalPosLat="-0.01" arrivalSpeed="27.49" duration="7.80" routeLength="143.87" waitingTime="0.00" waitingCount="0" stopTime="0.00" timeLoss="2.53" rerouteNo="0" devices="tripinfo_674" vType="Car" speedFactor="1.98" vaporized=""/>
    <tripinfo id="458" depart="0.00" departLane="207979566#1_0" departPos="21.50" departPosLat="0.00" departSpeed="2.78" departDelay="0.00" arrival="8.50" arrivalLane="207979566#1_0" arrivalPos="149.34" arrivalPosLat="-0.70" arrivalSpeed="29.82" duration="8.50" routeLength="127.84" waitingTime="0.00" waitingCount="0" stopTime="0.00" timeLoss="5.57" rerouteNo="0" devices="tripinfo_458" vType="Car" speedFactor="1.99" vaporized=""/>
    <tripinfo id="472" depart="0.00" departLane="207979566#1_1" departPos="13.00" departPosLat="0.00" departSpeed="1.94" departDelay="0.00" arrival="8.50" arrivalLane="207979566#1_0" arrivalPos="149.34" arrivalPosLat="1.56" arrivalSpeed="30.32" duration="8.50" routeLength="136.34" waitingTime="0.00" waitingCount="0" stopTime="0.00" timeLoss="5.21" rerouteNo="0" devices="tripinfo_472" vType="Car" speedFactor="1.88" vaporized=""/>
    <tripinfo id="662" depart="0.00" departLane="23182965#0.13_2" departPos="32.20" departPosLat="0.00" departSpeed="4.42" departDelay="0.00" arrival="8.80" arrivalLane="207979569#0_2" arrivalPos="65.83" arrivalPosLat="-0.23" arrivalSpeed="26.30" duration="8.80" routeLength="143.37" waitingTime="0.00" waitingCount="0" stopTime="0.00" timeLoss="3.40" rerouteNo="0" devices="tripinfo_662" vType="Car" speedFactor="1.92" vaporized=""/>
    <tripinfo id="664" depart="0.00" departLane="23182965#0.13_4" departPos="30.90" departPosLat="0.00" departSpeed="3.81" departDelay="0.00" arrival="8.90" arrivalLane="207979569#0_4" arrivalPos="65.83" arrivalPosLat="-0.69" arrivalSpeed="20.46" duration="8.90" routeLength="144.67" waitingTime="0.00" waitingCount="0" stopTime="0.00" timeLoss="1.85" rerouteNo="0" devices="tripinfo_664" vType="Taxi" speedFactor="1.49" vaporized=""/>
    <tripinfo id="630" depart="0.00" departLane="23182965#0.13_3" departPos="17.60" departPosLat="0.00" departSpeed="1.69" departDelay="0.00" arrival="9.10" arrivalLane="207979569#0_3" arrivalPos="65.83" arrivalPosLat="0.02" arrivalSpeed="24.93" duration="9.10" routeLength="157.97" waitingTime="0.00" waitingCount="0" stopTime="0.00" timeLoss="2.74" rerouteNo="0" devices="tripinfo_630" vType="Car" speedFactor="1.80" vaporized=""/>
    <tripinfo id="466" depart="0.00" departLane="207979566#1_0" departPos="6.10" departPosLat="0.00" departSpeed="1.83" departDelay="0.00" arrival="9.40" arrivalLane="207979566#1_0" arrivalPos="149.34" arrivalPosLat="-0.57" arrivalSpeed="31.07" duration="9.40" routeLength="143.24" waitingTime="0.00" waitingCount="0" stopTime="0.00" timeLoss="6.10" rerouteNo="0" devices="tripinfo_466" vType="Car" speedFactor="1.96" vaporized=""/>
    <tripinfo id="766" depart="1.20" departLane="23182965#0.13_1" departPos="20.60" departPosLat="0.00" departSpeed="9.58" departDelay="1.20" arrival="9.50" arrivalLane="207979569#0_1" arrivalPos="65.83" arrivalPosLat="1.14" arrivalSpeed="24.28" duration="8.30" routeLength="154.97" waitingTime="0.00" waitingCount="0" stopTime="0.00" timeLoss="1.86" rerouteNo="0" devices="tripinfo_766" vType="Motorcycle" speedFactor="1.75" vaporized=""/>
    <tripinfo id="678" depart="0.00" departLane="23182965#0.13_2" departPos="21.70" departPosLat="0.00" departSpeed="3.14" departDelay="0.00" arrival="9.80" arrivalLane="207979569#0_2" arrivalPos="65.83" arrivalPosLat="-0.30" arrivalSpeed="26.49" duration="9.80" routeLength="153.87" waitingTime="0.00" waitingCount="0" stopTime="0.00" timeLoss="4.02" rerouteNo="0" devices="tripinfo_678" vType="Car" speedFactor="1.92" vaporized=""/>
    <tripinfo id="518" depart="0.00" departLane="207979566#1_1" departPos="0.30" departPosLat="0.00" departSpeed="0.92" departDelay="0.00" arrival="9.80" arrivalLane="207979566#1_0" arrivalPos="149.34" arrivalPosLat="1.32" arrivalSpeed="31.98" duration="9.80" routeLength="149.04" waitingTime="0.00" waitingCount="0" stopTime="0.00" timeLoss="6.14" rerouteNo="0" devices="tripinfo_518" vType="Medium" speedFactor="1.83" vaporized=""/>
    <tripinfo id="690" depart="0.00" departLane="23182965#0.13_4" departPos="15.70" departPosLat="0.00" departSpeed="1.64" departDelay="0.00" arrival="10.10" arrivalLane="207979569#0_4" arrivalPos="65.83" arrivalPosLat="0.33" arrivalSpeed="24.28" duration="10.10" routeLength="159.87" waitingTime="0.00" waitingCount="0" stopTime="0.00" timeLoss="4.03" rerouteNo="0" devices="tripinfo_690" vType="Car" speedFactor="1.90" vaporized=""/>
    <tripinfo id="590" depart="1.50" departLane="207979566#1_0" departPos="2.20" departPosLat="0.00" departSpeed="1.67" departDelay="1.50" arrival="10.80" arrivalLane="207979566#1_0" arrivalPos="149.34" arrivalPosLat="-0.56" arrivalSpeed="29.88" duration="9.30" routeLength="147.14" waitingTime="0.00" waitingCount="0" stopTime="0.00" timeLoss="4.30" rerouteNo="0" devices="tripinfo_590" vType="Medium" speedFactor="1.35" vaporized=""/>
    <tripinfo id="680" depart="0.00" departLane="23182965#0.13_2" departPos="12.30" departPosLat="0.00" departSpeed="0.33" departDelay="0.00" arrival="10.90" arrivalLane="207979569#0_2" arrivalPos="65.83" arrivalPosLat="-0.28" arrivalSpeed="27.21" duration="10.90" routeLength="163.27" waitingTime="0.00" waitingCount="0" stopTime="0.00" timeLoss="4.82" rerouteNo="0" devices="tripinfo_680" vType="Car" speedFactor="1.96" vaporized=""/>
    <tripinfo id="675" depart="2.40" departLane="23182965#0.13_4" departPos="23.20" departPosLat="0.00" departSpeed="3.11" departDelay="2.40" arrival="11.40" arrivalLane="207979569#0_4" arrivalPos="65.83" arrivalPosLat="0.23" arrivalSpeed="26.37" duration="9.00" routeLength="152.37" waitingTime="0.00" waitingCount="0" stopTime="0.00" timeLoss="3.24" rerouteNo="0" devices="tripinfo_675" vType="Car" speedFactor="1.91" vaporized=""/>
    <tripinfo id="687" depart="1.10" departLane="23182965#0.13_2" departPos="6.90" departPosLat="0.00" departSpeed="0.03" departDelay="1.10" arrival="12.00" arrivalLane="207979569#0_2" arrivalPos="65.83" arrivalPosLat="0.14" arrivalSpeed="24.79" duration="10.90" routeLength="168.67" waitingTime="0.00" waitingCount="0" stopTime="0.00" timeLoss="4.04" rerouteNo="0" devices="tripinfo_687" vType="Car" speedFactor="1.79" vaporized=""/>
    <tripinfo id="646" depart="0.00" departLane="23182965#0.13_0" departPos="34.00" departPosLat="0.00" departSpeed="2.58" departDelay="0.00" arrival="12.50" arrivalLane="207979566#1_0" arrivalPos="149.34" arrivalPosLat="0.51" arrivalSpeed="35.67" duration="12.50" routeLength="219.51" waitingTime="0.00" waitingCount="0" stopTime="0.00" timeLoss="5.75" rerouteNo="0" devices="tripinfo_646" vType="Car" speedFactor="1.86" vaporized=""/>
    <tripinfo id="641" depart="3.40" departLane="23182965#0.13_3" departPos="0.00" departPosLat="0.00" departSpeed="8.06" departDelay="0.00" arrival="12.50" arrivalLane="207979569#0_3" arrivalPos="65.83" arrivalPosLat="0.30" arrivalSpeed="22.47" duration="9.10" routeLength="175.57" waitingTime="0.00" waitingCount="0" stopTime="0.00" timeLoss="1.34" rerouteNo="0" devices="tripinfo_641" vType="Taxi" speedFactor="1.63" vaporized=""/>
    <tripinfo id="715" depart="5.00" departLane="23182965#0.13_4" departPos="0.00" departPosLat="0.00" departSpeed="13.19" departDelay="0.00" arrival="12.90" arrivalLane="207979569#0_4" arrivalPos="65.83" arrivalPosLat="0.47" arrivalSpeed="27.45" duration="7.90" routeLength="175.57" waitingTime="0.00" waitingCount="0" stopTime="0.00" timeLoss="1.46" rerouteNo="0" devices="tripinfo_715" vType="Car" speedFactor="1.98" vaporized=""/>
    <tripinfo id="695" depart="3.20" departLane="23182965#0.13_2" departPos="0.00" departPosLat="0.00" departSpeed="1.58" departDelay="0.00" arrival="13.30" arrivalLane="207979569#0_2" arrivalPos="65.83" arrivalPosLat="0.54" arrivalSpeed="27.49" duration="10.10" routeLength="175.57" waitingTime="0.00" waitingCount="0" stopTime="0.00" timeLoss="3.67" rerouteNo="0" devices="tripinfo_695" vType="Car" speedFactor="1.99" vaporized=""/>
    <tripinfo id="688" depart="0.00" departLane="23182965#0.13_0" departPos="13.80" departPosLat="0.00" departSpeed="1.67" departDelay="0.00" arrival="14.40" arrivalLane="207979566#1_0" arrivalPos="149.34" arrivalPosLat="0.43" arrivalSpeed="35.68" duration="14.40" routeLength="239.71" waitingTime="0.00" waitingCount="0" stopTime="0.00" timeLoss="6.84" rerouteNo="0" devices="tripinfo_688" vType="Car" speedFactor="1.84" vaporized=""/>
    <tripinfo id="801" depart="6.20" departLane="23182965#0.13_4" departPos="0.00" departPosLat="0.00" departSpeed="14.97" departDelay="0.00" arrival="14.50" arrivalLane="207979569#0_4" arrivalPos="65.83" arrivalPosLat="0.85" arrivalSpeed="23.50" duration="8.30" routeLength="175.57" waitingTime="0.00" waitingCount="0" stopTime="0.00" timeLoss="0.81" rerouteNo="0" devices="tripinfo_801" vType="Motorcycle" speedFactor="1.69" vaporized=""/>
    <tripinfo id="672" depart="5.40" departLane="23182965#0.13_3" departPos="0.00" departPosLat="0.00" departSpeed="8.28" departDelay="0.00" arrival="14.60" arrivalLane="207979569#0_3" arrivalPos="65.83" arrivalPosLat="0.42" arrivalSpeed="24.26" duration="9.20" routeLength="175.57" waitingTime="0.00" waitingCount="0" stopTime="0.00" timeLoss="1.96" rerouteNo="0" devices="tripinfo_672" vType="Taxi" speedFactor="1.76" vaporized=""/>
    <tripinfo id="762" depart="7.20" departLane="23182965#0.13_4" departPos="0.00" departPosLat="0.00" departSpeed="12.50" departDelay="0.00" arrival="15.90" arrivalLane="207979569#0_4" arrivalPos="65.83" arrivalPosLat="0.87" arrivalSpeed="23.42" duration="8.70" routeLength="175.57" waitingTime="0.00" waitingCount="0" stopTime="0.00" timeLoss="1.19" rerouteNo="0" devices="tripinfo_762" vType="Motorcycle" speedFactor="1.70" vaporized=""/>
    <tripinfo id="667" depart="5.80" departLane="23182965#0.13_1" departPos="0.00" departPosLat="0.00" departSpeed="5.03" departDelay="0.00" arrival="17.00" arrivalLane="207979569#0_1" arrivalPos="65.83" arrivalPosLat="-0.02" arrivalSpeed="17.45" duration="11.20" routeLength="175.57" waitingTime="0.00" waitingCount="0" stopTime="0.00" timeLoss="1.10" rerouteNo="0" devices="tripinfo_667" vType="Bus" speedFactor="1.26" vaporized=""/>
    <tripinfo id="683" depart="2.00" departLane="23182965#0.13_0" departPos="14.70" departPosLat="0.00" departSpeed="5.83" departDelay="2.00" arrival="17.70" arrivalLane="207979566#1_0" arrivalPos="149.34" arrivalPosLat="-0.08" arrivalSpeed="29.79" duration="15.70" routeLength="238.81" waitingTime="0.00" waitingCount="0" stopTime="0.00" timeLoss="7.33" rerouteNo="0" devices="tripinfo_683" vType="Motorcycle" speedFactor="1.67" vaporized=""/>
    <tripinfo id="773" depart="10.00" departLane="23182965#0.13_3" departPos="0.00" departPosLat="0.00" departSpeed="10.58" departDelay="0.00" arrival="18.20" arrivalLane="207979569#0_3" arrivalPos="65.83" arrivalPosLat="0.32" arrivalSpeed="25.17" duration="8.20" routeLength="175.57" waitingTime="0.00" waitingCount="0" stopTime="0.00" timeLoss="1.17" rerouteNo="0" devices="tripinfo_773" vType="Taxi" speedFactor="1.81" vaporized=""/>
    <tripinfo id="676" depart="3.80" departLane="23182965#0.13_0" departPos="23.40" departPosLat="0.00" departSpeed="3.11" departDelay="3.80" arrival="18.60" arrivalLane="207979566#1_0" arrivalPos="149.34" arrivalPosLat="0.27" arrivalSpeed="31.25" duration="14.80" routeLength="230.11" waitingTime="0.00" waitingCount="0" stopTime="0.00" timeLoss="7.58" rerouteNo="0" devices="tripinfo_676" vType="Car" speedFactor="1.85" vaporized=""/>
    <tripinfo id="813" depart="10.60" departLane="23182965#0.13_2" departPos="0.00" departPosLat="0.00" departSpeed="13.03" departDelay="0.00" arrival="19.40" arrivalLane="207979569#0_1" arrivalPos="65.83" arrivalPosLat="1.12" arrivalSpeed="24.89" duration="8.80" routeLength="175.57" waitingTime="0.00" waitingCount="0" stopTime="0.00" timeLoss="1.74" rerouteNo="0" devices="tripinfo_813" vType="Motorcycle" speedFactor="1.80" vaporized=""/>
    <tripinfo id="736" depart="10.80" departLane="23182965#0.13_1" departPos="0.00" departPosLat="0.00" departSpeed="5.42" departDelay="0.00" arrival="20.70" arrivalLane="207979569#0_1" arrivalPos="65.83" arrivalPosLat="-0.12" arrivalSpeed="26.13" duration="9.90" routeLength="175.57" waitingTime="0.00" waitingCount="0" stopTime="0.00" timeLoss="3.19" rerouteNo="0" devices="tripinfo_736" vType="Taxi" speedFactor="1.90" vaporized=""/>
    <tripinfo id="692" depart="11.80" departLane="23182965#0.13_2" departPos="0.00" departPosLat="0.00" departSpeed="8.28" departDelay="0.00" arrival="20.90" arrivalLane="207979569#0_3" arrivalPos="65.83" arrivalPosLat="-0.85" arrivalSpeed="22.03" duration="9.10" routeLength="175.57" waitingTime="0.00" waitingCount="0" stopTime="0.00" timeLoss="1.07" rerouteNo="0" devices="tripinfo_692" vType="Bus" speedFactor="1.59" vaporized=""/>
    <tripinfo id="512" depart="14.70" departLane="207979566#1_0" departPos="41.20" departPosLat="0.00" departSpeed="3.83" departDelay="14.70" arrival="21.40" arrivalLane="207979566#1_0" arrivalPos="149.34" arrivalPosLat="0.52" arrivalSpeed="28.95" duration="6.70" routeLength="108.14" waitingTime="0.00" waitingCount="0" stopTime="0.00" timeLoss="4.14" rerouteNo="0" devices="tripinfo_512" vType="Car" speedFactor="1.94" vaporized=""/>
    <tripinfo id="778" depart="14.00" departLane="23182965#0.13_4" departPos="0.00" departPosLat="0.00" departSpeed="10.36" departDelay="0.00" arrival="21.80" arrivalLane="207979569#0_4" arrivalPos="65.83" arrivalPosLat="-0.53" arrivalSpeed="26.98" duration="7.80" routeLength="175.57" waitingTime="0.00" waitingCount="0" stopTime="0.00" timeLoss="1.31" rerouteNo="0" devices="tripinfo_778" vType="Taxi" speedFactor="1.95" vaporized=""/>
    <tripinfo id="786" depart="14.20" departLane="23182965#0.13_3" departPos="0.00" departPosLat="0.00" departSpeed="9.50" departDelay="0.00" arrival="22.70" arrivalLane="207979569#0_3" arrivalPos="65.83" arrivalPosLat="-0.52" arrivalSpeed="27.14" duration="8.50" routeLength="175.57" waitingTime="0.00" waitingCount="0" stopTime="0.00" timeLoss="1.98" rerouteNo="0" devices="tripinfo_786" vType="Car" speedFactor="1.95" vaporized=""/>
    <tripinfo id="724" depart="14.80" departLane="23182965#0.13_2" departPos="0.00" departPosLat="0.00" departSpeed="8.44" departDelay="0.00" arrival="23.10" arrivalLane="207979569#0_2" arrivalPos="65.83" arrivalPosLat="0.37" arrivalSpeed="27.56" duration="8.30" routeLength="175.57" waitingTime="0.00" waitingCount="0" stopTime="0.00" timeLoss="1.91" rerouteNo="0" devices="tripinfo_724" vType="Car" speedFactor="1.99" vaporized=""/>
    <tripinfo id="743" depart="14.60" departLane="23182965#0.13_1" departPos="0.00" departPosLat="0.00" departSpeed="7.64" departDelay="0.00" arrival="23.20" arrivalLane="207979569#0_1" arrivalPos="65.83" arrivalPosLat="-0.69" arrivalSpeed="25.92" duration="8.60" routeLength="175.57" waitingTime="0.00" waitingCount="0" stopTime="0.00" timeLoss="1.82" rerouteNo="0" devices="tripinfo_743" vType="Taxi" speedFactor="1.88" vaporized=""/>
    <tripinfo id="792" depart="16.60" departLane="23182965#0.13_3" departPos="0.00" departPosLat="0.00" departSpeed="9.89" departDelay="0.00" arrival="24.70" arrivalLane="207979569#0_3" arrivalPos="65.83" arrivalPosLat="-0.49" arrivalSpeed="25.78" duration="8.10" routeLength="175.57" waitingTime="0.00" waitingCount="0" stopTime="0.00" timeLoss="1.29" rerouteNo="0" devices="tripinfo_792" vType="Car" speedFactor="1.87" vaporized=""/>
    <tripinfo id="789" depart="16.20" departLane="23182965#0.13_1" departPos="0.00" departPosLat="0.00" departSpeed="7.92" departDelay="0.00" arrival="25.00" arrivalLane="207979569#0_1" arrivalPos="65.83" arrivalPosLat="0.25" arrivalSpeed="27.46" duration="8.80" routeLength="175.57" waitingTime="0.00" waitingCount="0" stopTime="0.00" timeLoss="2.39" rerouteNo="0" devices="tripinfo_789" vType="Taxi" speedFactor="1.98" vaporized=""/>
    <tripinfo id="867" depart="16.80" departLane="23182965#0.13_4" departPos="0.00" departPosLat="0.00" departSpeed="16.94" departDelay="0.00" arrival="25.00" arrivalLane="207979569#0_4" arrivalPos="65.83" arrivalPosLat="-0.67" arrivalSpeed="21.98" duration="8.20" routeLength="175.57" waitingTime="0.00" waitingCount="0" stopTime="0.00" timeLoss="0.27" rerouteNo="0" devices="tripinfo_867" vType="Motorcycle" speedFactor="1.59" vaporized=""/>
    <tripinfo id="765" depart="17.40" departLane="23182965#0.13_2" departPos="0.00" departPosLat="0.00" departSpeed="8.31" departDelay="0.00" arrival="25.70" arrivalLane="207979569#0_2" arrivalPos="65.83" arrivalPosLat="-0.06" arrivalSpeed="26.35" duration="8.30" routeLength="175.57" waitingTime="0.00" waitingCount="0" stopTime="0.00" timeLoss="1.61" rerouteNo="0" devices="tripinfo_765" vType="Car" speedFactor="1.90" vaporized=""/>
    <tripinfo id="826" depart="17.80" departLane="23182965#0.13_3" departPos="0.00" departPosLat="0.00" departSpeed="9.94" departDelay="0.00" arrival="26.00" arrivalLane="207979569#0_3" arrivalPos="65.83" arrivalPosLat="-0.01" arrivalSpeed="26.15" duration="8.20" routeLength="175.57" waitingTime="0.00" waitingCount="0" stopTime="0.00" timeLoss="1.41" rerouteNo="0" devices="tripinfo_826" vType="Car" speedFactor="1.88" vaporized=""/>
    <tripinfo id="758" depart="19.00" departLane="23182965#0.13_1" departPos="0.00" departPosLat="0.00" departSpeed="7.86" departDelay="0.00" arrival="27.30" arrivalLane="207979569#0_1" arrivalPos="65.83" arrivalPosLat="0.31" arrivalSpeed="26.95" duration="8.30" routeLength="175.57" waitingTime="0.00" waitingCount="0" stopTime="0.00" timeLoss="1.73" rerouteNo="0" devices="tripinfo_758" vType="Car" speedFactor="1.94" vaporized=""/>
    <tripinfo id="797" depart="19.60" departLane="23182965#0.13_2" departPos="0.00" departPosLat="0.00" departSpeed="9.14" departDelay="0.00" arrival="27.70" arrivalLane="207979569#0_3" arrivalPos="65.83" arrivalPosLat="-0.58" arrivalSpeed="26.85" duration="8.10" routeLength="175.57" waitingTime="0.00" waitingCount="0" stopTime="0.00" timeLoss="1.53" rerouteNo="0" devices="tripinfo_797" vType="Car" speedFactor="1.94" vaporized=""/>
    <tripinfo id="822" depart="20.40" departLane="23182965#0.13_4" departPos="0.00" departPosLat="0.00" departSpeed="9.00" departDelay="0.00" arrival="28.60" arrivalLane="207979569#0_4" arrivalPos="65.83" arrivalPosLat="-0.15" arrivalSpeed="25.89" duration="8.20" routeLength="175.57" waitingTime="0.00" waitingCount="0" stopTime="0.00" timeLoss="1.40" rerouteNo="0" devices="tripinfo_822" vType="Car" speedFactor="1.87" vaporized=""/>
    <tripinfo id="831" depart="20.60" departLane="23182965#0.13_3" departPos="0.00" departPosLat="0.00" departSpeed="11.72" departDelay="0.00" arrival="28.70" arrivalLane="207979569#0_3" arrivalPos="65.83" arrivalPosLat="-0.67" arrivalSpeed="26.48" duration="8.10" routeLength="175.57" waitingTime="0.00" waitingCount="0" stopTime="0.00" timeLoss="1.47" rerouteNo="0" devices="tripinfo_831" vType="Car" speedFactor="1.91" vaporized=""/>
    <tripinfo id="770" depart="20.60" departLane="23182965#0.13_1" departPos="0.00" departPosLat="0.00" departSpeed="7.75" departDelay="0.00" arrival="29.40" arrivalLane="207979569#0_1" arrivalPos="65.83" arrivalPosLat="0.30" arrivalSpeed="25.12" duration="8.80" routeLength="175.57" waitingTime="0.00" waitingCount="0" stopTime="0.00" timeLoss="1.82" rerouteNo="0" devices="tripinfo_770" vType="Taxi" speedFactor="1.83" vaporized=""/>
    <tripinfo id="795" depart="21.60" departLane="23182965#0.13_2" departPos="0.00" departPosLat="0.00" departSpeed="10.19" departDelay="0.00" arrival="29.60" arrivalLane="207979569#0_2" arrivalPos="65.83" arrivalPosLat="-0.37" arrivalSpeed="26.31" duration="8.00" routeLength="175.57" waitingTime="0.00" waitingCount="0" stopTime="0.00" timeLoss="1.31" rerouteNo="0" devices="tripinfo_795" vType="Car" speedFactor="1.90" vaporized=""/>
    <tripinfo id="852" depart="22.40" departLane="23182965#0.13_3" departPos="0.00" departPosLat="0.00" departSpeed="11.19" departDelay="0.00" arrival="30.60" arrivalLane="207979569#0_3" arrivalPos="65.83" arrivalPosLat="0.09" arrivalSpeed="27.24" duration="8.20" routeLength="175.57" waitingTime="0.00" waitingCount="0" stopTime="0.00" timeLoss="1.77" rerouteNo="0" devices="tripinfo_852" vType="Taxi" speedFactor="1.97" vaporized=""/>
    <tripinfo id="806" depart="24.20" departLane="23182965#0.13_2" departPos="0.00" departPosLat="0.00" departSpeed="10.25" departDelay="0.00" arrival="32.10" arrivalLane="207979569#0_2" arrivalPos="65.83" arrivalPosLat="-0.03" arrivalSpeed="27.37" duration="7.90" routeLength="175.57" waitingTime="0.00" waitingCount="0" stopTime="0.00" timeLoss="1.45" rerouteNo="0" devices="tripinfo_806" vType="Car" speedFactor="1.98" vaporized=""/>
    <tripinfo id="859" depart="24.20" departLane="23182965#0.13_3" departPos="0.00" departPosLat="0.00" departSpeed="10.94" departDelay="0.00" arrival="32.10" arrivalLane="207979569#0_3" arrivalPos="65.83" arrivalPosLat="0.44" arrivalSpeed="26.69" duration="7.90" routeLength="175.57" waitingTime="0.00" waitingCount="0" stopTime="0.00" timeLoss="1.33" rerouteNo="0" devices="tripinfo_859" vType="Car" speedFactor="1.92" vaporized=""/>
    <tripinfo id="781" depart="24.40" departLane="23182965#0.13_1" departPos="0.00" departPosLat="0.00" departSpeed="8.39" departDelay="0.00" arrival="32.90" arrivalLane="207979569#0_1" arrivalPos="65.83" arrivalPosLat="-0.05" arrivalSpeed="24.72" duration="8.50" routeLength="175.57" waitingTime="0.00" waitingCount="0" stopTime="0.00" timeLoss="1.38" rerouteNo="0" devices="tripinfo_781" vType="Car" speedFactor="1.79" vaporized=""/>
    <tripinfo id="817" depart="20.80" departLane="23182965#0.13_0" departPos="0.00" departPosLat="0.00" departSpeed="10.81" departDelay="0.00" arrival="33.60" arrivalLane="207979566#1_0" arrivalPos="149.34" arrivalPosLat="-0.58" arrivalSpeed="35.68" duration="12.80" routeLength="253.51" waitingTime="0.00" waitingCount="0" stopTime="0.00" timeLoss="4.56" rerouteNo="0" devices="tripinfo_817" vType="Car" speedFactor="1.84" vaporized=""/>
    <tripinfo id="865" depart="25.20" departLane="23182965#0.13_4" departPos="0.00" departPosLat="0.00" departSpeed="11.89" departDelay="0.00" arrival="33.60" arrivalLane="207979569#0_4" arrivalPos="65.83" arrivalPosLat="0.13" arrivalSpeed="25.83" duration="8.40" routeLength="175.57" waitingTime="0.00" waitingCount="0" stopTime="0.00" timeLoss="1.56" rerouteNo="0" devices="tripinfo_865" vType="Motorcycle" speedFactor="1.87" vaporized=""/>
    <tripinfo id="870" depart="25.40" departLane="23182965#0.13_2" departPos="0.00" departPosLat="0.00" departSpeed="10.69" departDelay="0.00" arrival="34.20" arrivalLane="207979569#0_2" arrivalPos="65.83" arrivalPosLat="0.94" arrivalSpeed="25.29" duration="8.80" routeLength="175.57" waitingTime="0.00" waitingCount="0" stopTime="0.00" timeLoss="1.90" rerouteNo="0" devices="tripinfo_870" vType="Motorcycle" speedFactor="1.83" vaporized=""/>
    <tripinfo id="835" depart="26.00" departLane="23182965#0.13_1" departPos="0.00" departPosLat="0.00" departSpeed="10.67" departDelay="0.00" arrival="34.60" arrivalLane="207979569#0_2" arrivalPos="65.83" arrivalPosLat="-0.05" arrivalSpeed="27.31" duration="8.60" routeLength="175.57" waitingTime="0.00" waitingCount="0" stopTime="0.00" timeLoss="2.13" rerouteNo="0" devices="tripinfo_835" vType="Motorcycle" speedFactor="1.98" vaporized=""/>
    <tripinfo id="874" depart="26.40" departLane="23182965#0.13_4" departPos="0.00" departPosLat="0.00" departSpeed="11.69" departDelay="0.00" arrival="34.60" arrivalLane="207979569#0_4" arrivalPos="65.83" arrivalPosLat="0.32" arrivalSpeed="27.61" duration="8.20" routeLength="175.57" waitingTime="0.00" waitingCount="0" stopTime="0.00" timeLoss="1.86" rerouteNo="0" devices="tripinfo_874" vType="Car" speedFactor="2.00" vaporized=""/>
    <tripinfo id="884" depart="27.20" departLane="23182965#0.13_3" departPos="0.00" departPosLat="0.00" departSpeed="12.64" departDelay="0.00" arrival="35.30" arrivalLane="207979569#0_3" arrivalPos="65.83" arrivalPosLat="0.72" arrivalSpeed="27.50" duration="8.10" routeLength="175.57" waitingTime="0.00" waitingCount="0" stopTime="0.00" timeLoss="1.67" rerouteNo="0" devices="tripinfo_884" vType="Motorcycle" speedFactor="1.99" vaporized=""/>
    <tripinfo id="880" depart="27.20" departLane="23182965#0.13_1" departPos="0.00" departPosLat="0.00" departSpeed="11.28" departDelay="0.60" arrival="36.10" arrivalLane="207979569#0_2" arrivalPos="65.83" arrivalPosLat="-0.13" arrivalSpeed="24.36" duration="8.90" routeLength="175.57" waitingTime="0.00" waitingCount="0" stopTime="0.00" timeLoss="1.63" rerouteNo="0" devices="tripinfo_880" vType="Motorcycle" speedFactor="1.76" vaporized=""/>
    <tripinfo id="833" depart="28.00" departLane="23182965#0.13_1" departPos="0.00" departPosLat="0.00" departSpeed="9.92" departDelay="0.40" arrival="36.60" arrivalLane="207979569#0_1" arrivalPos="65.83" arrivalPosLat="-0.67" arrivalSpeed="27.58" duration="8.60" routeLength="175.57" waitingTime="0.00" waitingCount="0" stopTime="0.00" timeLoss="2.19" rerouteNo="0" devices="tripinfo_833" vType="Car" speedFactor="2.00" vaporized=""/>
    <tripinfo id="875" depart="28.00" departLane="23182965#0.13_4" departPos="0.00" departPosLat="0.00" departSpeed="11.75" departDelay="0.00" arrival="36.60" arrivalLane="207979569#0_4" arrivalPos="65.83" arrivalPosLat="0.95" arrivalSpeed="24.58" duration="8.60" routeLength="175.57" waitingTime="0.00" waitingCount="0" stopTime="0.00" timeLoss="1.47" rerouteNo="0" devices="tripinfo_875" vType="Motorcycle" speedFactor="1.77" vaporized=""/>
    <tripinfo id="841" depart="27.20" departLane="23182965#0.13_2" departPos="0.00" departPosLat="0.00" departSpeed="8.00" departDelay="0.00" arrival="37.00" arrivalLane="207979569#0_2" arrivalPos="65.83" arrivalPosLat="0.17" arrivalSpeed="26.22" duration="9.80" routeLength="175.57" waitingTime="0.00" waitingCount="0" stopTime="0.00" timeLoss="3.20" rerouteNo="0" devices="tripinfo_841" vType="Car" speedFactor="1.92" vaporized=""/>