<?xml version="1.0" encoding="UTF-8"?>

<!-- generated on 2026-02-16 17:02:17 by Eclipse SUMO sumo Version 1.24.0
<sumoConfiguration xmlns:xsi="http://www.w3.org/2001/XMLSchema-instance" xsi:noNamespaceSchemaLocation="http://sumo.dlr.de/xsd/sumoConfiguration.xsd">

    <input>
        <net-file value="Info_Cycle_4\../osm.net.xml"/>
        <route-files value="Info_Cycle_4\routes.rou.xml"/>
        <additional-files value="Info_Cycle_4\osm.add.xml,Info_Cycle_4\../osm.type.xml"/>
    </input>

    <output>
        <tripinfo-output value="Info_Cycle_4\tripinfo.xml"/>
    </output>

    <time>
        <begin value="0.0"/>
        <end value="90.0"/>
        <step-length value="0.1"/>
    </time>

    <processing>
        <lateral-resolution value="1.0"/>
        <time-to-teleport value="-1"/>
        <eager-insert value="true"/>
    </processing>

    <report>
        <verbose value="true"/>
        <no-warnings value="False"/>
        <no-step-log value="true"/>
    </report>

    <gui_only>
        <gui-settings-file value="Info_Cycle_4\../osm.view.xml"/>
        <start value="True"/>
    </gui_only>

</sumoConfiguration>
-->

<tripinfos xmlns:xsi="http://www.w3.org/2001/XMLSchema-instance" xsi:noNamespaceSchemaLocation="http://sumo.dlr.de/xsd/tripinfo_file.xsd">
    <tripinfo id="1000" depart="0.00" departLane="207979569#0_0" departPos="35.60" departPosLat="0.00" departSpeed="6.19" departDelay="0.00" arrival="2.70" arrivalLane="207979569#0_0" arrivalPos="65.83" arrivalPosLat="0.23" arrivalSpeed="15.65" duration="2.70" routeLength="30.23" waitingTime="0.00" waitingCount="0" stopTime="0.00" timeLoss="1.46" rerouteNo="0" devices="tripinfo_1000" vType="Taxi" speedFactor="1.76" vaporized=""/>
    <tripinfo id="913" depart="0.00" departLane="207979569#0_4" departPos="26.70" departPosLat="0.00" departSpeed="0.00" departDelay="0.00" arrival="5.50" arrivalLane="207979569#0_4" arrivalPos="65.83" arrivalPosLat="-0.31" arrivalSpeed="13.68" duration="5.50" routeLength="39.13" waitingTime="0.00" waitingCount="0" stopTime="0.00" timeLoss="4.04" rerouteNo="0" devices="tripinfo_913" vType="Motorcycle" speedFactor="1.94" vaporized=""/>
    <tripinfo id="989" depart="2.10" departLane="207979569#0_4" departPos="6.00" departPosLat="0.00" departSpeed="9.64" departDelay="2.10" arrival="6.60" arrivalLane="207979569#0_4" arrivalPos="65.83" arrivalPosLat="0.82" arrivalSpeed="18.56" duration="4.50" routeLength="59.83" waitingTime="0.00" waitingCount="0" stopTime="0.00" timeLoss="2.09" rerouteNo="0" devices="tripinfo_989" vType="Motorcycle" speedFactor="1.83" vaporized=""/>
    <tripinfo id="676" depart="0.00" departLane="207979566#1_0" departPos="54.50" departPosLat="0.00" departSpeed="0.00" departDelay="0.00" arrival="6.80" arrivalLane="207979566#1_0" arrivalPos="149.34" arrivalPosLat="-0.50" arrivalSpeed="27.23" duration="6.80" routeLength="94.84" waitingTime="0.00" waitingCount="0" stopTime="0.00" timeLoss="4.55" rerouteNo="0" devices="tripinfo_676" vType="Car" speedFactor="1.92" vaporized=""/>
    <tripinfo id="817" depart="0.00" departLane="207979566#1_0" departPos="43.70" departPosLat="0.00" departSpeed="0.00" departDelay="0.00" arrival="7.80" arrivalLane="207979566#1_0" arrivalPos="149.34" arrivalPosLat="-0.63" arrivalSpeed="28.27" duration="7.80" routeLength="105.64" waitingTime="0.00" waitingCount="0" stopTime="0.00" timeLoss="5.20" rerouteNo="0" devices="tripinfo_817" vType="Car" speedFactor="1.86" vaporized=""/>
    <tripinfo id="820" depart="0.00" departLane="207979566#1_0" departPos="28.40" departPosLat="0.00" departSpeed="0.00" departDelay="0.00" arrival="8.70" arrivalLane="207979566#1_0" arrivalPos="149.34" arrivalPosLat="-0.68" arrivalSpeed="29.44" duration="8.70" routeLength="120.94" waitingTime="0.00" waitingCount="0" stopTime="0.00" timeLoss="5.83" rerouteNo="0" devices="tripinfo_820" vType="Car" speedFactor="1.92" vaporized=""/>
    <tripinfo id="950" depart="0.00" departLane="23182965#0.13_0" departPos="24.80" departPosLat="0.00" departSpeed="1.56" departDelay="0.00" arrival="9.00" arrivalLane="207979569#0_1" arrivalPos="65.83" arrivalPosLat="-1.22" arrivalSpeed="23.74" duration="9.00" routeLength="150.77" waitingTime="0.00" waitingCount="0" stopTime="0.00" timeLoss="2.66" rerouteNo="0" devices="tripinfo_950" vType="Taxi" speedFactor="1.72" vaporized=""/>
    <tripinfo id="977" depart="0.00" departLane="23182965#0.13_4" departPos="28.50" departPosLat="0.00" departSpeed="2.03" departDelay="0.00" arrival="9.10" arrivalLane="207979569#0_4" arrivalPos="65.83" arrivalPosLat="0.61" arrivalSpeed="24.76" duration="9.10" routeLength="147.07" waitingTime="0.00" waitingCount="0" stopTime="0.00" timeLoss="3.18" rerouteNo="0" devices="tripinfo_977" vType="Car" speedFactor="1.79" vaporized=""/>
    <tripinfo id="980" depart="0.00" departLane="23182965#0.13_3" departPos="34.50" departPosLat="0.00" departSpeed="3.75" departDelay="0.00" arrival="9.40" arrivalLane="207979569#0_4" arrivalPos="65.83" arrivalPosLat="-0.99" arrivalSpeed="22.62" duration="9.40" routeLength="141.07" waitingTime="0.00" waitingCount="0" stopTime="0.00" timeLoss="3.22" rerouteNo="0" devices="tripinfo_980" vType="Motorcycle" speedFactor="1.65" vaporized=""/>
    <tripinfo id="567" depart="0.00" departLane="207979566#1_1" departPos="11.00" departPosLat="0.00" departSpeed="0.00" departDelay="0.00" arrival="9.60" arrivalLane="207979566#1_0" arrivalPos="149.34" arrivalPosLat="1.59" arrivalSpeed="30.55" duration="9.60" routeLength="138.34" waitingTime="0.00" waitingCount="0" stopTime="0.00" timeLoss="6.24" rerouteNo="0" devices="tripinfo_567" vType="Car" speedFactor="1.88" vaporized=""/>
    <tripinfo id="603" depart="0.00" departLane="207979566#1_0" departPos="14.50" departPosLat="0.00" departSpeed="0.00" departDelay="0.00" arrival="9.60" arrivalLane="207979566#1_0" arrivalPos="149.34" arrivalPosLat="-0.70" arrivalSpeed="30.80" duration="9.60" routeLength="134.84" waitingTime="0.00" waitingCount="0" stopTime="0.00" timeLoss="6.52" rerouteNo="0" devices="tripinfo_603" vType="Car" speedFactor="1.99" vaporized=""/>
    <tripinfo id="969" depart="0.00" departLane="23182965#0.13_3" departPos="26.50" departPosLat="0.00" departSpeed="1.64" departDelay="0.00" arrival="9.80" arrivalLane="207979569#0_3" arrivalPos="65.83" arrivalPosLat="0.61" arrivalSpeed="27.20" duration="9.80" routeLength="149.07" waitingTime="0.00" waitingCount="0" stopTime="0.00" timeLoss="4.31" rerouteNo="0" devices="tripinfo_969" vType="Car" speedFactor="1.96" vaporized=""/>
    <tripinfo id="966" depart="0.00" departLane="23182965#0.13_1" departPos="17.80" departPosLat="0.00" departSpeed="0.08" departDelay="0.00" arrival="10.60" arrivalLane="207979569#0_1" arrivalPos="65.83" arrivalPosLat="-0.61" arrivalSpeed="26.54" duration="10.60" routeLength="157.77" waitingTime="0.00" waitingCount="0" stopTime="0.00" timeLoss="4.62" rerouteNo="0" devices="tripinfo_966" vType="Car" speedFactor="1.92" vaporized=""/>
    <tripinfo id="986" depart="0.20" departLane="23182965#0.13_3" departPos="18.30" departPosLat="0.00" departSpeed="0.69" departDelay="0.20" arrival="10.80" arrivalLane="207979569#0_3" arrivalPos="65.83" arrivalPosLat="0.26" arrivalSpeed="26.79" duration="10.60" routeLength="157.27" waitingTime="0.00" waitingCount="0" stopTime="0.00" timeLoss="4.74" rerouteNo="0" devices="tripinfo_986" vType="Car" speedFactor="1.93" vaporized=""/>
    <tripinfo id="777" depart="0.70" departLane="207979566#1_0" departPos="7.00" departPosLat="0.00" departSpeed="0.72" departDelay="0.70" arrival="11.10" arrivalLane="207979566#1_0" arrivalPos="149.34" arrivalPosLat="0.63" arrivalSpeed="31.02" duration="10.40" routeLength="142.34" waitingTime="0.00" waitingCount="0" stopTime="0.00" timeLoss="7.05" rerouteNo="0" devices="tripinfo_777" vType="Taxi" speedFactor="1.95" vaporized=""/>
    <tripinfo id="1028" depart="2.00" departLane="23182965#0.13_4" departPos="0.00" departPosLat="0.00" departSpeed="8.61" departDelay="0.00" arrival="11.40" arrivalLane="207979569#0_4" arrivalPos="65.83" arrivalPosLat="0.56" arrivalSpeed="23.49" duration="9.40" routeLength="175.57" waitingTime="0.00" waitingCount="0" stopTime="0.00" timeLoss="1.96" rerouteNo="0" devices="tripinfo_1028" vType="Motorcycle" speedFactor="1.70" vaporized=""/>
    <tripinfo id="728" depart="0.00" departLane="207979569#0_4" departPos="1.90" departPosLat="0.00" departSpeed="0.19" departDelay="0.00" arrival="12.00" arrivalLane="207979569#0_1" arrivalPos="65.83" arrivalPosLat="-0.05" arrivalSpeed="13.03" duration="12.00" routeLength="63.93" waitingTime="1.80" waitingCount="1" stopTime="0.00" timeLoss="9.66" rerouteNo="0" devices="tripinfo_728" vType="Taxi" speedFactor="1.97" vaporized=""/>
    <tripinfo id="991" depart="0.00" departLane="23182965#0.13_1" departPos="35.10" departPosLat="0.00" departSpeed="3.44" departDelay="0.00" arrival="12.30" arrivalLane="207979569#0_2" arrivalPos="65.83" arrivalPosLat="0.45" arrivalSpeed="17.52" duration="12.30" routeLength="140.47" waitingTime="0.00" waitingCount="0" stopTime="0.00" timeLoss="6.71" rerouteNo="0" devices="tripinfo_991" vType="Motorcycle" speedFactor="1.81" vaporized=""/>
    <tripinfo id="1030" depart="1.10" departLane="23182965#0.13_3" departPos="0.00" departPosLat="0.00" departSpeed="6.08" departDelay="0.50" arrival="12.60" arrivalLane="207979569#0_3" arrivalPos="65.83" arrivalPosLat="0.96" arrivalSpeed="23.31" duration="11.50" routeLength="175.57" waitingTime="0.00" waitingCount="0" stopTime="0.00" timeLoss="3.96" rerouteNo="0" devices="tripinfo_1030" vType="Motorcycle" speedFactor="1.69" vaporized=""/>
    <tripinfo id="1064" depart="4.00" departLane="23182965#0.13_4" departPos="0.00" departPosLat="0.00" departSpeed="13.03" departDelay="3.60" arrival="12.80" arrivalLane="207979569#0_4" arrivalPos="65.83" arrivalPosLat="0.36" arrivalSpeed="22.94" duration="8.80" routeLength="175.57" waitingTime="0.00" waitingCount="0" stopTime="0.00" timeLoss="1.14" rerouteNo="0" devices="tripinfo_1064" vType="Motorcycle" speedFactor="1.66" vaporized=""/>
    <tripinfo id="679" depart="0.60" departLane="207979566#1_1" departPos="3.40" departPosLat="0.00" departSpeed="0.00" departDelay="0.60" arrival="13.30" arrivalLane="207979566#1_0" arrivalPos="149.34" arrivalPosLat="0.50" arrivalSpeed="21.87" duration="12.70" routeLength="145.94" waitingTime="0.00" waitingCount="0" stopTime="0.00" timeLoss="6.09" rerouteNo="0" devices="tripinfo_679" vType="Heavy" speedFactor="1.00" vaporized=""/>
    <tripinfo id="953" depart="0.00" departLane="23182965#0.13_1" departPos="26.40" departPosLat="0.00" departSpeed="1.00" departDelay="0.00" arrival="13.50" arrivalLane="207979569#0_2" arrivalPos="65.83" arrivalPosLat="0.34" arrivalSpeed="20.21" duration="13.50" routeLength="149.17" waitingTime="0.00" waitingCount="0" stopTime="0.00" timeLoss="7.63" rerouteNo="0" devices="tripinfo_953" vType="Car" speedFactor="1.85" vaporized=""/>
    <tripinfo id="1057" depart="4.50" departLane="23182965#0.13_3" departPos="8.50" departPosLat="0.00" departSpeed="10.47" departDelay="4.50" arrival="13.80" arrivalLane="207979569#0_3" arrivalPos="65.83" arrivalPosLat="0.84" arrivalSpeed="24.56" duration="9.30" routeLength="167.07" waitingTime="0.00" waitingCount="0" stopTime="0.00" timeLoss="2.55" rerouteNo="0" devices="tripinfo_1057" vType="Motorcycle" speedFactor="1.78" vaporized=""/>
    <tripinfo id="1071" depart="5.20" departLane="23182965#0.13_4" departPos="0.00" departPosLat="0.00" departSpeed="13.31" departDelay="1.80" arrival="14.10" arrivalLane="207979569#0_4" arrivalPos="65.83" arrivalPosLat="0.20" arrivalSpeed="24.10" duration="8.90" routeLength="175.57" waitingTime="0.00" waitingCount="0" stopTime="0.00" timeLoss="1.55" rerouteNo="0" devices="tripinfo_1071" vType="Motorcycle" speedFactor="1.74" vaporized=""/>
    <tripinfo id="942" depart="0.00" departLane="23182965#0.13_2" departPos="25.90" departPosLat="0.00" departSpeed="1.44" departDelay="0.00" arrival="15.10" arrivalLane="207979569#0_2" arrivalPos="65.83" arrivalPosLat="0.50" arrivalSpeed="22.04" duration="15.10" routeLength="149.67" waitingTime="0.00" waitingCount="0" stopTime="0.00" timeLoss="9.52" rerouteNo="0" devices="tripinfo_942" vType="Taxi" speedFactor="1.93" vaporized=""/>
    <tripinfo id="946" depart="5.60" departLane="23182965#0.13_4" departPos="0.00" departPosLat="0.00" departSpeed="9.06" departDelay="0.40" arrival="15.10" arrivalLane="207979569#0_4" arrivalPos="65.83" arrivalPosLat="0.28" arrivalSpeed="26.52" duration="9.50" routeLength="175.57" waitingTime="0.00" waitingCount="0" stopTime="0.00" timeLoss="2.94" rerouteNo="0" devices="tripinfo_946" vType="Car" speedFactor="1.94" vaporized=""/>
    <tripinfo id="704" depart="5.90" departLane="207979566#1_0" departPos="23.40" departPosLat="0.00" departSpeed="0.00" departDelay="5.90" arrival="15.20" arrivalLane="207979566#1_0" arrivalPos="149.34" arrivalPosLat="-0.39" arrivalSpeed="20.18" duration="9.30" routeLength="125.94" waitingTime="0.00" waitingCount="0" stopTime="0.00" timeLoss="3.11" rerouteNo="0" devices="tripinfo_704" vType="Heavy" speedFactor="0.92" vaporized=""/>
    <tripinfo id="974" depart="3.80" departLane="23182965#0.13_2" departPos="18.00" departPosLat="0.00" departSpeed="0.19" departDelay="3.80" arrival="15.30" arrivalLane="207979569#0_3" arrivalPos="65.83" arrivalPosLat="0.43" arrivalSpeed="25.88" duration="11.50" routeLength="157.57" waitingTime="0.00" waitingCount="0" stopTime="0.00" timeLoss="5.37" rerouteNo="0" devices="tripinfo_974" vType="Car" speedFactor="1.86" vaporized=""/>
    <tripinfo id="1041" depart="7.40" departLane="23182965#0.13_4" departPos="0.00" departPosLat="0.00" departSpeed="8.50" departDelay="0.00" arrival="16.30" arrivalLane="207979569#0_4" arrivalPos="65.83" arrivalPosLat="0.50" arrivalSpeed="27.63" duration="8.90" routeLength="175.57" waitingTime="0.00" waitingCount="0" stopTime="0.00" timeLoss="2.55" rerouteNo="0" devices="tripinfo_1041" vType="Car" speedFactor="1.99" vaporized=""/>
    <tripinfo id="985" depart="0.00" departLane="23182965#0.13_2" departPos="9.70" departPosLat="0.00" departSpeed="0.00" departDelay="0.00" arrival="16.80" arrivalLane="207979569#0_2" arrivalPos="65.83" arrivalPosLat="0.33" arrivalSpeed="23.32" duration="16.80" routeLength="165.87" waitingTime="0.00" waitingCount="0" stopTime="0.00" timeLoss="9.70" rerouteNo="0" devices="tripinfo_985" vType="Taxi" speedFactor="1.69" vaporized=""/>
    <tripinfo id="650" depart="5.60" departLane="207979566#1_1" departPos="16.10" departPosLat="0.00" departSpeed="0.00" departDelay="5.60" arrival="17.10" arrivalLane="207979566#1_0" arrivalPos="149.34" arrivalPosLat="1.07" arrivalSpeed="24.01" duration="11.50" routeLength="133.24" waitingTime="0.00" waitingCount="0" stopTime="0.00" timeLoss="7.78" rerouteNo="0" devices="tripinfo_650" vType="Taxi" speedFactor="1.63" vaporized=""/>
    <tripinfo id="959" depart="5.60" departLane="23182965#0.13_3" departPos="0.00" departPosLat="0.00" departSpeed="7.36" departDelay="0.00" arrival="17.20" arrivalLane="207979569#0_3" arrivalPos="65.83" arrivalPosLat="0.36" arrivalSpeed="21.65" duration="11.60" routeLength="175.57" waitingTime="0.00" waitingCount="0" stopTime="0.00" timeLoss="3.48" rerouteNo="0" devices="tripinfo_959" vType="Medium" speedFactor="1.56" vaporized=""/>
    <tripinfo id="1062" depart="7.60" departLane="23182965#0.13_3" departPos="0.00" departPosLat="0.00" departSpeed="8.00" departDelay="0.00" arrival="18.40" arrivalLane="207979569#0_3" arrivalPos="65.83" arrivalPosLat="0.32" arrivalSpeed="25.57" duration="10.80" routeLength="175.57" waitingTime="0.00" waitingCount="0" stopTime="0.00" timeLoss="4.33" rerouteNo="0" devices="tripinfo_1062" vType="Car" speedFactor="1.95" vaporized=""/>
    <tripinfo id="936" depart="3.20" departLane="23182965#0.13_1" departPos="0.00" departPosLat="0.00" departSpeed="3.28" departDelay="0.00" arrival="18.50" arrivalLane="207979569#0_2" arrivalPos="65.83" arrivalPosLat="0.40" arrivalSpeed="25.91" duration="15.30" routeLength="175.57" waitingTime="0.00" waitingCount="0" stopTime="0.00" timeLoss="8.48" rerouteNo="0" devices="tripinfo_936" vType="Taxi" speedFactor="1.87" vaporized=""/>
    <tripinfo id="602" depart="5.60" departLane="207979566#1_1" departPos="5.50" departPosLat="0.00" departSpeed="0.00" departDelay="5.60" arrival="18.70" arrivalLane="207979566#1_0" arrivalPos="149.34" arrivalPosLat="0.66" arrivalSpeed="26.61" duration="13.10" routeLength="143.84" waitingTime="0.00" waitingCount="0" stopTime="0.00" timeLoss="9.52" rerouteNo="0" devices="tripinfo_602" vType="Taxi" speedFactor="1.82" vaporized=""/>
    <tripinfo id="1085" depart="11.00" departLane="23182965#0.13_4" departPos="0.00" departPosLat="0.00" departSpeed="10.97" departDelay="0.00" arrival="19.50" arrivalLane="207979569#0_4" arrivalPos="65.83" arrivalPosLat="0.19" arrivalSpeed="25.97" duration="8.50" routeLength="175.57" waitingTime="0.00" waitingCount="0" stopTime="0.00" timeLoss="1.72" rerouteNo="0" devices="tripinfo_1085" vType="Motorcycle" speedFactor="1.88" vaporized=""/>
    <tripinfo id="698" depart="0.00" departLane="23182965#0.13_0" departPos="14.40" departPosLat="0.00" departSpeed="0.06" departDelay="0.00" arrival="20.10" arrivalLane="207979566#1_0" arrivalPos="149.34" arrivalPosLat="-0.04" arrivalSpeed="25.31" duration="20.10" routeLength="239.11" waitingTime="0.00" waitingCount="0" stopTime="0.00" timeLoss="12.67" rerouteNo="0" devices="tripinfo_698" vType="Motorcycle" speedFactor="1.88" vaporized=""/>
    <tripinfo id="975" depart="7.20" departLane="23182965#0.13_2" departPos="0.00" departPosLat="0.00" departSpeed="6.56" departDelay="0.00" arrival="20.10" arrivalLane="207979569#0_2" arrivalPos="65.83" arrivalPosLat="0.32" arrivalSpeed="27.26" duration="12.90" routeLength="175.57" waitingTime="0.00" waitingCount="0" stopTime="0.00" timeLoss="6.53" rerouteNo="0" devices="tripinfo_975" vType="Taxi" speedFactor="1.98" vaporized=""/>
    <tripinfo id="1076" depart="10.00" departLane="23182965#0.13_3" departPos="0.00" departPosLat="0.00" departSpeed="6.86" departDelay="0.00" arrival="20.20" arrivalLane="207979569#0_3" arrivalPos="65.83" arrivalPosLat="0.32" arrivalSpeed="26.09" duration="10.20" routeLength="175.57" waitingTime="0.00" waitingCount="0" stopTime="0.00" timeLoss="3.48" rerouteNo="0" devices="tripinfo_1076" vType="Taxi" speedFactor="1.88" vaporized=""/>
    <tripinfo id="700" depart="11.70" departLane="207979566#1_1" departPos="6.70" departPosLat="0.00" departSpeed="0.39" departDelay="11.70" arrival="21.00" arrivalLane="207979566#1_0" arrivalPos="149.34" arrivalPosLat="0.84" arrivalSpeed="26.65" duration="9.30" routeLength="142.64" waitingTime="0.00" waitingCount="0" stopTime="0.00" timeLoss="5.76" rerouteNo="0" devices="tripinfo_700" vType="Car" speedFactor="1.82" vaporized=""/>
    <tripinfo id="1087" depart="12.40" departLane="23182965#0.13_4" departPos="0.00" departPosLat="0.00" departSpeed="11.28" departDelay="0.00" arrival="21.00" arrivalLane="207979569#0_4" arrivalPos="65.83" arrivalPosLat="0.34" arrivalSpeed="25.62" duration="8.60" routeLength="175.57" waitingTime="0.00" waitingCount="0" stopTime="0.00" timeLoss="1.77" rerouteNo="0" devices="tripinfo_1087" vType="Motorcycle" speedFactor="1.85" vaporized=""/>
    <tripinfo id="1039" depart="10.80" departLane="23182965#0.13_2" departPos="0.00" departPosLat="0.00" departSpeed="6.19" departDelay="0.00" arrival="21.30" arrivalLane="207979569#0_2" arrivalPos="65.83" arrivalPosLat="0.27" arrivalSpeed="27.68" duration="10.50" routeLength="175.57" waitingTime="0.00" waitingCount="0" stopTime="0.00" timeLoss="4.09" rerouteNo="0" devices="tripinfo_1039" vType="Car" speedFactor="1.99" vaporized=""/>
    <tripinfo id="1077" depart="12.00" departLane="23182965#0.13_3" departPos="0.00" departPosLat="0.00" departSpeed="6.97" departDelay="0.00" arrival="22.20" arrivalLane="207979569#0_3" arrivalPos="65.83" arrivalPosLat="0.16" arrivalSpeed="22.43" duration="10.20" routeLength="175.57" waitingTime="0.00" waitingCount="0" stopTime="0.00" timeLoss="2.33" rerouteNo="0" devices="tripinfo_1077" vType="Medium" speedFactor="1.62" vaporized=""/>
    <tripinfo id="1043" depart="12.60" departLane="23182965#0.13_2" departPos="0.00" departPosLat="0.00" departSpeed="5.61" departDelay="0.00" arrival="22.40" arrivalLane="207979569#0_2" arrivalPos="65.83" arrivalPosLat="0.44" arrivalSpeed="25.77" duration="9.80" routeLength="175.57" waitingTime="0.00" waitingCount="0" stopTime="0.00" timeLoss="3.01" rerouteNo="0" devices="tripinfo_1043" vType="Car" speedFactor="1.87" vaporized=""/>
    <tripinfo id="965" depart="0.00" departLane="23182965#0.13_0" departPos="9.20" departPosLat="0.00" departSpeed="0.00" departDelay="0.00" arrival="22.50" arrivalLane="207979566#1_0" arrivalPos="149.34" arrivalPosLat="0.70" arrivalSpeed="27.65" duration="22.50" routeLength="244.31" waitingTime="0.00" waitingCount="0" stopTime="0.00" timeLoss="14.39" rerouteNo="0" devices="tripinfo_965" vType="Taxi" speedFactor="1.77" vaporized=""/>
    <tripinfo id="1097" depart="15.00" departLane="23182965#0.13_4" departPos="0.00" departPosLat="0.00" departSpeed="11.97" departDelay="0.00" arrival="23.20" arrivalLane="207979569#0_4" arrivalPos="65.83" arrivalPosLat="-0.06" arrivalSpeed="27.53" duration="8.20" routeLength="175.57" waitingTime="0.00" waitingCount="0" stopTime="0.00" timeLoss="1.79" rerouteNo="0" devices="tripinfo_1097" vType="Motorcycle" speedFactor="1.98" vaporized=""/>
    <tripinfo id="988" depart="4.80" departLane="23182965#0.13_0" departPos="17.80" departPosLat="0.00" departSpeed="0.83" departDelay="4.80" arrival="23.50" arrivalLane="207979566#1_0" arrivalPos="149.34" arrivalPosLat="0.32" arrivalSpeed="29.62" duration="18.70" routeLength="235.71" waitingTime="0.00" waitingCount="0" stopTime="0.00" timeLoss="11.57" rerouteNo="0" devices="tripinfo_988" vType="Car" speedFactor="1.91" vaporized=""/>
    <tripinfo id="1090" depart="14.80" departLane="23182965#0.13_3" departPos="0.00" departPosLat="0.00" departSpeed="8.58" departDelay="0.00" arrival="23.60" arrivalLane="207979569#0_3" arrivalPos="65.83" arrivalPosLat="0.37" arrivalSpeed="26.10" duration="8.80" routeLength="175.57" waitingTime="0.00" waitingCount="0" stopTime="0.00" timeLoss="2.08" rerouteNo="0" devices="tripinfo_1090" vType="Car" speedFactor="1.88" vaporized=""/>
    <tripinfo id="992" depart="14.40" departLane="23182965#0.13_1" departPos="0.00" departPosLat="0.00" departSpeed="4.75" departDelay="0.00" arrival="23.70" arrivalLane="207979569#0_2" arrivalPos="65.83" arrivalPosLat="0.29" arrivalSpeed="26.25" duration="9.30" routeLength="175.57" waitingTime="0.00" waitingCount="0" stopTime="0.00" timeLoss="2.58" rerouteNo="0" devices="tripinfo_992" vType="Car" speedFactor="1.90" vaporized=""/>
    <tripinfo id="889" depart="13.80" departLane="207979566#1_1" departPos="2.20" departPosLat="0.00" departSpeed="2.64" departDelay="13.80" arrival="25.30" arrivalLane="207979566#1_0" arrivalPos="149.34" arrivalPosLat="0.65" arrivalSpeed="24.95" duration="11.50" routeLength="147.14" waitingTime="0.00" waitingCount="0" stopTime="0.00" timeLoss="7.51" rerouteNo="0" devices="tripinfo_889" vType="Motorcycle" speedFactor="1.68" vaporized=""/>
    <tripinfo id="837" depart="19.10" departLane="207979566#1_0" departPos="34.30" departPosLat="0.00" departSpeed="0.00" departDelay="19.10" arrival="26.70" arrivalLane="207979566#1_0" arrivalPos="149.34" arrivalPosLat="0.41" arrivalSpeed="29.84" duration="7.60" routeLength="115.04" waitingTime="0.00" waitingCount="0" stopTime="0.00" timeLoss="4.73" rerouteNo="0" devices="tripinfo_837" vType="Car" speedFactor="1.83" vaporized=""/>
    <tripinfo id="1142" depart="18.60" departLane="23182965#0.13_4" departPos="0.00" departPosLat="0.00" departSpeed="16.25" departDelay="0.00" arrival="26.70" arrivalLane="207979569#0_4" arrivalPos="65.83" arrivalPosLat="1.11" arrivalSpeed="23.09" duration="8.10" routeLength="175.57" waitingTime="0.00" waitingCount="0" stopTime="0.00" timeLoss="0.46" rerouteNo="0" devices="tripinfo_1142" vType="Motorcycle" speedFactor="1.67" vaporized=""/>
    <tripinfo id="993" depart="17.70" departLane="23182965#0.13_3" departPos="32.10" departPosLat="0.00" departSpeed="3.69" departDelay="17.70" arrival="27.10" arrivalLane="207979569#0_3" arrivalPos="65.83" arrivalPosLat="-0.38" arrivalSpeed="25.42" duration="9.40" routeLength="143.47" waitingTime="0.00" waitingCount="0" stopTime="0.00" timeLoss="3.74" rerouteNo="0" devices="tripinfo_993" vType="Motorcycle" speedFactor="1.85" vaporized=""/>
    <tripinfo id="1054" depart="17.00" departLane="23182965#0.13_2" departPos="0.00" departPosLat="0.00" departSpeed="3.78" departDelay="0.00" arrival="27.30" arrivalLane="207979569#0_2" arrivalPos="65.83" arrivalPosLat="-0.38" arrivalSpeed="20.59" duration="10.30" routeLength="175.57" waitingTime="0.00" waitingCount="0" stopTime="0.00" timeLoss="1.72" rerouteNo="0" devices="tripinfo_1054" vType="Bus" speedFactor="1.48" vaporized=""/>
    <tripinfo id="1117" depart="19.00" departLane="23182965#0.13_4" departPos="0.00" departPosLat="0.00" departSpeed="11.31" departDelay="0.20" arrival="27.70" arrivalLane="207979569#0_4" arrivalPos="65.83" arrivalPosLat="0.45" arrivalSpeed="25.95" duration="8.70" routeLength="175.57" waitingTime="0.00" waitingCount="0" stopTime="0.00" timeLoss="2.18" rerouteNo="0" devices="tripinfo_1117" vType="Car" speedFactor="1.95" vaporized=""/>
    <tripinfo id="1104" depart="17.80" departLane="23182965#0.13_3" departPos="0.00" departPosLat="0.00" departSpeed="9.69" departDelay="0.00" arrival="28.20" arrivalLane="207979569#0_3" arrivalPos="65.83" arrivalPosLat="-0.07" arrivalSpeed="26.89" duration="10.40" routeLength="175.57" waitingTime="0.00" waitingCount="0" stopTime="0.00" timeLoss="3.79" rerouteNo="0" devices="tripinfo_1104" vType="Car" speedFactor="1.94" vaporized=""/>
    <tripinfo id="688" depart="22.40" departLane="207979566#1_0" departPos="48.90" departPosLat="0.00" departSpeed="0.00" departDelay="22.40" arrival="29.50" arrivalLane="207979566#1_0" arrivalPos="149.34" arrivalPosLat="0.30" arrivalSpeed="27.60" duration="7.10" routeLength="100.44" waitingTime="0.00" waitingCount="0" stopTime="0.00" timeLoss="4.55" rerouteNo="0" devices="tripinfo_688" vType="Car" speedFactor="1.80" vaporized=""/>
    <tripinfo id="1131" depart="21.40" departLane="23182965#0.13_4" departPos="0.00" departPosLat="0.00" departSpeed="10.64" departDelay="0.00" arrival="29.50" arrivalLane="207979569#0_4" arrivalPos="65.83" arrivalPosLat="0.26" arrivalSpeed="26.40" duration="8.10" routeLength="175.57" waitingTime="0.00" waitingCount="0" stopTime="0.00" timeLoss="1.39" rerouteNo="0" devices="tripinfo_1131" vType="Car" speedFactor="1.90" vaporized=""/>
    <tripinfo id="1108" depart="20.80" departLane="23182965#0.13_3" departPos="0.00" departPosLat="0.00" departSpeed="10.19" departDelay="0.00" arrival="30.60" arrivalLane="207979569#0_3" arrivalPos="65.83" arrivalPosLat="-0.26" arrivalSpeed="21.11" duration="9.80" routeLength="175.57" waitingTime="0.00" waitingCount="0" stopTime="0.00" timeLoss="1.44" rerouteNo="0" devices="tripinfo_1108" vType="Taxi" speedFactor="1.52" vaporized=""/>
    <tripinfo id="1147" depart="22.90" departLane="23182965#0.13_4" departPos="0.00" departPosLat="0.00" departSpeed="14.19" departDelay="0.10" arrival="31.00" arrivalLane="207979569#0_4" arrivalPos="65.83" arrivalPosLat="-0.04" arrivalSpeed="24.91" duration="8.10" routeLength="175.57" waitingTime="0.00" waitingCount="0" stopTime="0.00" timeLoss="1.01" rerouteNo="0" devices="tripinfo_1147" vType="Motorcycle" speedFactor="1.81" vaporized=""/>
    <tripinfo id="1136" depart="23.40" departLane="23182965#0.13_3" departPos="0.00" departPosLat="0.00" departSpeed="12.92" departDelay="0.00" arrival="32.00" arrivalLane="207979569#0_3" arrivalPos="65.83" arrivalPosLat="-0.46" arrivalSpeed="26.43" duration="8.60" routeLength="175.57" waitingTime="0.00" waitingCount="0" stopTime="0.00" timeLoss="2.03" rerouteNo="0" devices="tripinfo_1136" vType="Car" speedFactor="1.92" vaporized=""/>
    <tripinfo id="1143" depart="24.20" departLane="23182965#0.13_4" departPos="0.00" departPosLat="0.00" departSpeed="13.56" departDelay="0.00" arrival="32.20" arrivalLane="207979569#0_4" arrivalPos="65.83" arrivalPosLat="0.44" arrivalSpeed="24.77" duration="8.00" routeLength="175.57" waitingTime="0.00" waitingCount="0" stopTime="0.00" timeLoss="0.85" rerouteNo="0" devices="tripinfo_1143" vType="Car" speedFactor="1.79" vaporized=""/>
    <tripinfo id="1146" depart="24.20" departLane="23182965#0.13_3" departPos="0.00" departPosLat="0.00" departSpeed="12.25" departDelay="0.20" arrival="33.40" arrivalLane="207979569#0_3" arrivalPos="65.83" arrivalPosLat="0.92" arrivalSpeed="25.43" duration="9.20" routeLength="175.57" waitingTime="0.00" waitingCount="0" stopTime="0.00" timeLoss="2.66" rerouteNo="0" devices="tripinfo_1146" vType="Motorcycle" speedFactor="1.96" vaporized=""/>
    <tripinfo id="1157" depart="26.60" departLane="23182965#0.13_3" departPos="0.00" departPosLat="0.00" departSpeed="12.33" departDelay="0.00" arrival="34.70" arrivalLane="207979569#0_3" arrivalPos="65.83" arrivalPosLat="0.32" arrivalSpeed="27.68" duration="8.10" routeLength="175.57" waitingTime="0.00" waitingCount="0" stopTime="0.00" timeLoss="1.76" rerouteNo="0" devices="tripinfo_1157" vType="Car" speedFactor="2.00" vaporized=""/>
    <tripinfo id="1086" depart="26.40" departLane="23182965#0.13_2" departPos="0.00" departPosLat="0.00" departSpeed="4.53" departDelay="0.00" arrival="35.30" arrivalLane="207979569#0_2" arrivalPos="65.83" arrivalPosLat="-0.69" arrivalSpeed="26.88" duration="8.90" routeLength="175.57" waitingTime="0.00" waitingCount="0" stopTime="0.00" timeLoss="2.40" rerouteNo="0" devices="tripinfo_1086" vType="Car" speedFactor="1.95" vaporized=""/>