<?xml version="1.0" encoding="UTF-8"?>

<!-- generated on 2026-02-16 17:02:17 by Eclipse SUMO sumo Version 1.24.0
<sumoConfiguration xmlns:xsi="http://www.w3.org/2001/XMLSchema-instance" xsi:noNamespaceSchemaLocation="http://sumo.dlr.de/xsd/sumoConfiguration.xsd">

    <input>
        <net-file value="Info_Cycle_2\../osm.net.xml"/>
        <route-files value="Info_Cycle_2\routes.rou.xml"/>
        <additional-files value="Info_Cycle_2\osm.add.xml,Info_Cycle_2\../osm.type.xml"/>
    </input>

    <output>
        <tripinfo-output value="Info_Cycle_2\tripinfo.xml"/>
    </output>

    <time>
        <begin value="0.0"/>
        <end value="90.0"/>
        <step-length value="0.1"/>
    </time>

    <processing>
        <lateral-resolution value="1.0"/>
        <time-to-teleport value="-1"/>
        <eager-insert value="true"/>
    </processing>

    <report>
        <verbose value="true"/>
        <no-warnings value="False"/>
        <no-step-log value="true"/>
    </report>

    <gui_only>
        <gui-settings-file value="Info_Cycle_2\../osm.view.xml"/>
        <start value="True"/>
    </gui_only>

</sumoConfiguration>
-->

<tripinfos xmlns:xsi="http://www.w3.org/2001/XMLSchema-instance" xsi:noNamespaceSchemaLocation="http://sumo.dlr.de/xsd/tripinfo_file.xsd">
    <tripinfo id="348" depart="0.00" departLane="207979569#0_3" departPos="5.50" departPosLat="0.00" departSpeed="8.47" departDelay="0.00" arrival="3.80" arrivalLane="207979569#0_3" arrivalPos="65.83" arrivalPosLat="-0.70" arrivalSpeed="23.50" duration="3.80" routeLength="60.33" waitingTime="0.00" waitingCount="0" stopTime="0.00" timeLoss="1.31" rerouteNo="0" devices="tripinfo_348" vType="Car" speedFactor="1.80" vaporized=""/>
    <tripinfo id="100" depart="0.00" departLane="207979566#1_0" departPos="55.50" departPosLat="0.00" departSpeed="4.94" departDelay="0.00" arrival="5.80" arrivalLane="207979566#1_0" arrivalPos="149.34" arrivalPosLat="-0.56" arrivalSpeed="27.21" duration="5.80" routeLength="93.84" waitingTime="0.00" waitingCount="0" stopTime="0.00" timeLoss="3.41" rerouteNo="0" devices="tripinfo_100" vType="Taxi" speedFactor="1.77" vaporized=""/>
    <tripinfo id="366" depart="0.00" departLane="23182965#0.13_3" departPos="29.90" departPosLat="0.00" departSpeed="6.00" departDelay="0.00" arrival="7.50" arrivalLane="207979569#0_3" arrivalPos="65.83" arrivalPosLat="0.20" arrivalSpeed="26.51" duration="7.50" routeLength="145.67" waitingTime="0.00" waitingCount="0" stopTime="0.00" timeLoss="2.01" rerouteNo="0" devices="tripinfo_366" vType="Car" speedFactor="1.92" vaporized=""/>
    <tripinfo id="87" depart="0.00" departLane="207979566#1_1" departPos="29.00" departPosLat="0.00" departSpeed="0.47" departDelay="0.00" arrival="7.80" arrivalLane="207979566#1_0" arrivalPos="149.34" arrivalPosLat="1.45" arrivalSpeed="29.90" duration="7.80" routeLength="120.34" waitingTime="0.00" waitingCount="0" stopTime="0.00" timeLoss="4.26" rerouteNo="0" devices="tripinfo_87" vType="Taxi" speedFactor="1.56" vaporized=""/>
    <tripinfo id="351" depart="0.00" departLane="207979566#1_0" departPos="29.30" departPosLat="0.00" departSpeed="4.61" departDelay="0.00" arrival="8.20" arrivalLane="207979566#1_0" arrivalPos="149.34" arrivalPosLat="-0.31" arrivalSpeed="24.25" duration="8.20" routeLength="120.04" waitingTime="0.00" waitingCount="0" stopTime="0.00" timeLoss="4.92" rerouteNo="0" devices="tripinfo_351" vType="Motorcycle" speedFactor="1.67" vaporized=""/>
    <tripinfo id="350" depart="0.00" departLane="23182965#0.13_2" departPos="27.10" departPosLat="0.00" departSpeed="2.50" departDelay="0.00" arrival="8.70" arrivalLane="207979569#0_2" arrivalPos="65.83" arrivalPosLat="-0.13" arrivalSpeed="23.44" duration="8.70" routeLength="148.47" waitingTime="0.00" waitingCount="0" stopTime="0.00" timeLoss="2.36" rerouteNo="0" devices="tripinfo_350" vType="Bus" speedFactor="1.69" vaporized=""/>
    <tripinfo id="323" depart="0.00" departLane="23182965#0.13_1" departPos="29.60" departPosLat="0.00" departSpeed="2.06" departDelay="0.00" arrival="8.90" arrivalLane="207979569#0_1" arrivalPos="65.83" arrivalPosLat="-0.20" arrivalSpeed="22.14" duration="8.90" routeLength="145.97" waitingTime="0.00" waitingCount="0" stopTime="0.00" timeLoss="2.29" rerouteNo="0" devices="tripinfo_323" vType="Bus" speedFactor="1.59" vaporized=""/>
    <tripinfo id="364" depart="0.00" departLane="207979566#1_0" departPos="2.00" departPosLat="0.00" departSpeed="3.86" departDelay="0.00" arrival="9.30" arrivalLane="207979566#1_0" arrivalPos="149.34" arrivalPosLat="0.25" arrivalSpeed="27.23" duration="9.30" routeLength="147.34" waitingTime="0.00" waitingCount="0" stopTime="0.00" timeLoss="5.70" rerouteNo="0" devices="tripinfo_364" vType="Car" speedFactor="1.86" vaporized=""/>
    <tripinfo id="381" depart="0.20" departLane="23182965#0.13_4" departPos="0.00" departPosLat="0.00" departSpeed="8.94" departDelay="0.00" arrival="9.60" arrivalLane="207979569#0_4" arrivalPos="65.83" arrivalPosLat="0.30" arrivalSpeed="23.60" duration="9.40" routeLength="175.57" waitingTime="0.00" waitingCount="0" stopTime="0.00" timeLoss="1.96" rerouteNo="0" devices="tripinfo_381" vType="Motorcycle" speedFactor="1.71" vaporized=""/>
    <tripinfo id="372" depart="0.20" departLane="23182965#0.13_3" departPos="17.20" departPosLat="0.00" departSpeed="4.03" departDelay="0.20" arrival="9.90" arrivalLane="207979569#0_3" arrivalPos="65.83" arrivalPosLat="0.46" arrivalSpeed="20.64" duration="9.70" routeLength="158.37" waitingTime="0.00" waitingCount="0" stopTime="0.00" timeLoss="2.00" rerouteNo="0" devices="tripinfo_372" vType="Taxi" speedFactor="1.49" vaporized=""/>
    <tripinfo id="337" depart="0.20" departLane="23182965#0.13_1" departPos="14.80" departPosLat="0.00" departSpeed="0.33" departDelay="0.20" arrival="10.70" arrivalLane="207979569#0_1" arrivalPos="65.83" arrivalPosLat="0.20" arrivalSpeed="24.79" duration="10.50" routeLength="160.77" waitingTime="0.00" waitingCount="0" stopTime="0.00" timeLoss="3.99" rerouteNo="0" devices="tripinfo_337" vType="Bus" speedFactor="1.78" vaporized=""/>
    <tripinfo id="156" depart="4.70" departLane="207979566#1_0" departPos="45.60" departPosLat="0.00" departSpeed="4.83" departDelay="4.70" arrival="10.70" arrivalLane="207979566#1_0" arrivalPos="149.34" arrivalPosLat="-0.69" arrivalSpeed="29.62" duration="6.00" routeLength="103.74" waitingTime="0.00" waitingCount="0" stopTime="0.00" timeLoss="2.73" rerouteNo="0" devices="tripinfo_156" vType="Medium" speedFactor="1.44" vaporized=""/>
    <tripinfo id="319" depart="0.80" departLane="23182965#0.13_3" departPos="0.00" departPosLat="0.00" departSpeed="7.47" departDelay="0.20" arrival="11.20" arrivalLane="207979569#0_3" arrivalPos="65.83" arrivalPosLat="0.25" arrivalSpeed="24.75" duration="10.40" routeLength="175.57" waitingTime="0.00" waitingCount="0" stopTime="0.00" timeLoss="3.80" rerouteNo="0" devices="tripinfo_319" vType="Car" speedFactor="1.93" vaporized=""/>
    <tripinfo id="421" depart="2.20" departLane="23182965#0.13_4" departPos="0.00" departPosLat="0.00" departSpeed="10.00" departDelay="0.00" arrival="11.20" arrivalLane="207979569#0_4" arrivalPos="65.83" arrivalPosLat="0.84" arrivalSpeed="25.00" duration="9.00" routeLength="175.57" waitingTime="0.00" waitingCount="0" stopTime="0.00" timeLoss="1.98" rerouteNo="0" devices="tripinfo_421" vType="Motorcycle" speedFactor="1.81" vaporized=""/>
    <tripinfo id="395" depart="5.20" departLane="207979566#1_0" departPos="34.40" departPosLat="0.00" departSpeed="4.72" departDelay="5.20" arrival="11.80" arrivalLane="207979566#1_0" arrivalPos="149.34" arrivalPosLat="0.02" arrivalSpeed="30.23" duration="6.60" routeLength="114.94" waitingTime="0.00" waitingCount="0" stopTime="0.00" timeLoss="3.77" rerouteNo="0" devices="tripinfo_395" vType="Car" speedFactor="1.84" vaporized=""/>
    <tripinfo id="376" depart="1.00" departLane="23182965#0.13_2" departPos="0.00" departPosLat="0.00" departSpeed="8.42" departDelay="1.00" arrival="12.20" arrivalLane="207979569#0_1" arrivalPos="65.83" arrivalPosLat="1.05" arrivalSpeed="23.67" duration="11.20" routeLength="175.57" waitingTime="0.00" waitingCount="0" stopTime="0.00" timeLoss="3.78" rerouteNo="0" devices="tripinfo_376" vType="Motorcycle" speedFactor="1.72" vaporized=""/>
    <tripinfo id="380" depart="3.20" departLane="23182965#0.13_3" departPos="0.00" departPosLat="0.00" departSpeed="8.97" departDelay="0.00" arrival="12.40" arrivalLane="207979569#0_3" arrivalPos="65.83" arrivalPosLat="0.11" arrivalSpeed="27.16" duration="9.20" routeLength="175.57" waitingTime="0.00" waitingCount="0" stopTime="0.00" timeLoss="2.72" rerouteNo="0" devices="tripinfo_380" vType="Car" speedFactor="1.96" vaporized=""/>
    <tripinfo id="373" depart="0.00" departLane="23182965#0.13_0" departPos="27.90" departPosLat="0.00" departSpeed="3.72" departDelay="0.00" arrival="12.90" arrivalLane="207979566#1_0" arrivalPos="149.34" arrivalPosLat="0.28" arrivalSpeed="33.25" duration="12.90" routeLength="225.61" waitingTime="0.00" waitingCount="0" stopTime="0.00" timeLoss="6.38" rerouteNo="0" devices="tripinfo_373" vType="Car" speedFactor="1.98" vaporized=""/>
    <tripinfo id="353" depart="2.70" departLane="23182965#0.13_2" departPos="0.00" departPosLat="0.00" departSpeed="8.67" departDelay="0.90" arrival="13.20" arrivalLane="207979569#0_2" arrivalPos="65.83" arrivalPosLat="0.06" arrivalSpeed="27.25" duration="10.50" routeLength="175.57" waitingTime="0.00" waitingCount="0" stopTime="0.00" timeLoss="4.06" rerouteNo="0" devices="tripinfo_353" vType="Taxi" speedFactor="1.98" vaporized=""/>
    <tripinfo id="427" depart="4.40" departLane="23182965#0.13_4" departPos="0.00" departPosLat="0.00" departSpeed="12.94" departDelay="0.20" arrival="13.20" arrivalLane="207979569#0_4" arrivalPos="65.83" arrivalPosLat="0.32" arrivalSpeed="22.63" duration="8.80" routeLength="175.57" waitingTime="0.00" waitingCount="0" stopTime="0.00" timeLoss="1.07" rerouteNo="0" devices="tripinfo_427" vType="Taxi" speedFactor="1.63" vaporized=""/>
    <tripinfo id="331" depart="5.80" departLane="23182965#0.13_3" departPos="0.00" departPosLat="0.00" departSpeed="8.72" departDelay="0.00" arrival="14.00" arrivalLane="207979569#0_3" arrivalPos="65.83" arrivalPosLat="0.16" arrivalSpeed="27.60" duration="8.20" routeLength="175.57" waitingTime="0.00" waitingCount="0" stopTime="0.00" timeLoss="1.85" rerouteNo="0" devices="tripinfo_331" vType="Car" speedFactor="1.99" vaporized=""/>
    <tripinfo id="433" depart="6.20" departLane="23182965#0.13_4" departPos="0.00" departPosLat="0.00" departSpeed="12.44" departDelay="0.00" arrival="14.60" arrivalLane="207979569#0_4" arrivalPos="65.83" arrivalPosLat="0.41" arrivalSpeed="25.92" duration="8.40" routeLength="175.57" waitingTime="0.00" waitingCount="0" stopTime="0.00" timeLoss="1.65" rerouteNo="0" devices="tripinfo_433" vType="Car" speedFactor="1.88" vaporized=""/>
    <tripinfo id="418" depart="3.90" departLane="23182965#0.13_2" departPos="0.00" departPosLat="0.00" departSpeed="7.50" departDelay="1.10" arrival="14.80" arrivalLane="207979569#0_2" arrivalPos="65.83" arrivalPosLat="-0.40" arrivalSpeed="25.43" duration="10.90" routeLength="175.57" waitingTime="0.00" waitingCount="0" stopTime="0.00" timeLoss="4.01" rerouteNo="0" devices="tripinfo_418" vType="Motorcycle" speedFactor="1.85" vaporized=""/>
    <tripinfo id="423" depart="5.80" departLane="23182965#0.13_2" departPos="0.00" departPosLat="0.00" departSpeed="8.86" departDelay="1.40" arrival="15.40" arrivalLane="207979569#0_3" arrivalPos="65.83" arrivalPosLat="-0.41" arrivalSpeed="26.95" duration="9.60" routeLength="175.57" waitingTime="0.00" waitingCount="0" stopTime="0.00" timeLoss="3.02" rerouteNo="0" devices="tripinfo_423" vType="Car" speedFactor="1.94" vaporized=""/>
    <tripinfo id="455" depart="7.90" departLane="23182965#0.13_4" departPos="0.00" departPosLat="0.00" departSpeed="17.25" departDelay="2.90" arrival="16.00" arrivalLane="207979569#0_4" arrivalPos="65.83" arrivalPosLat="0.95" arrivalSpeed="26.77" duration="8.10" routeLength="175.57" waitingTime="0.00" waitingCount="0" stopTime="0.00" timeLoss="1.54" rerouteNo="0" devices="tripinfo_455" vType="Motorcycle" speedFactor="1.94" vaporized=""/>
    <tripinfo id="452" depart="8.50" departLane="23182965#0.13_2" departPos="0.00" departPosLat="0.00" departSpeed="13.56" departDelay="3.10" arrival="16.90" arrivalLane="207979569#0_2" arrivalPos="65.83" arrivalPosLat="-0.22" arrivalSpeed="25.92" duration="8.40" routeLength="175.57" waitingTime="0.00" waitingCount="0" stopTime="0.00" timeLoss="1.57" rerouteNo="0" devices="tripinfo_452" vType="Motorcycle" speedFactor="1.87" vaporized=""/>
    <tripinfo id="445" depart="8.20" departLane="23182965#0.13_3" departPos="0.00" departPosLat="0.00" departSpeed="13.22" departDelay="0.00" arrival="17.10" arrivalLane="207979569#0_4" arrivalPos="65.83" arrivalPosLat="0.36" arrivalSpeed="25.25" duration="8.90" routeLength="175.57" waitingTime="0.00" waitingCount="0" stopTime="0.00" timeLoss="1.89" rerouteNo="0" devices="tripinfo_445" vType="Car" speedFactor="1.82" vaporized=""/>
    <tripinfo id="379" depart="9.10" departLane="23182965#0.13_2" departPos="0.00" departPosLat="0.00" departSpeed="10.39" departDelay="0.50" arrival="17.90" arrivalLane="207979569#0_2" arrivalPos="65.83" arrivalPosLat="-0.35" arrivalSpeed="27.62" duration="8.80" routeLength="175.57" waitingTime="0.00" waitingCount="0" stopTime="0.00" timeLoss="2.39" rerouteNo="0" devices="tripinfo_379" vType="Car" speedFactor="2.00" vaporized=""/>
    <tripinfo id="443" depart="9.20" departLane="23182965#0.13_4" departPos="0.00" departPosLat="0.00" departSpeed="12.28" departDelay="0.00" arrival="18.10" arrivalLane="207979569#0_4" arrivalPos="65.83" arrivalPosLat="0.36" arrivalSpeed="27.52" duration="8.90" routeLength="175.57" waitingTime="0.00" waitingCount="0" stopTime="0.00" timeLoss="2.54" rerouteNo="0" devices="tripinfo_443" vType="Car" speedFactor="1.99" vaporized=""/>
    <tripinfo id="439" depart="10.60" departLane="23182965#0.13_2" departPos="0.00" departPosLat="0.00" departSpeed="9.83" departDelay="0.00" arrival="18.60" arrivalLane="207979569#0_3" arrivalPos="65.83" arrivalPosLat="-0.50" arrivalSpeed="27.45" duration="8.00" routeLength="175.57" waitingTime="0.00" waitingCount="0" stopTime="0.00" timeLoss="1.57" rerouteNo="0" devices="tripinfo_439" vType="Car" speedFactor="1.98" vaporized=""/>
    <tripinfo id="473" depart="10.20" departLane="23182965#0.13_3" departPos="0.00" departPosLat="0.00" departSpeed="15.47" departDelay="0.20" arrival="19.20" arrivalLane="207979569#0_4" arrivalPos="65.83" arrivalPosLat="-0.02" arrivalSpeed="25.52" duration="9.00" routeLength="175.57" waitingTime="0.00" waitingCount="0" stopTime="0.00" timeLoss="2.16" rerouteNo="0" devices="tripinfo_473" vType="Motorcycle" speedFactor="1.85" vaporized=""/>
    <tripinfo id="448" depart="10.60" departLane="23182965#0.13_4" departPos="0.00" departPosLat="0.00" departSpeed="11.94" departDelay="0.00" arrival="20.20" arrivalLane="207979569#0_4" arrivalPos="65.83" arrivalPosLat="0.58" arrivalSpeed="26.63" duration="9.60" routeLength="175.57" waitingTime="0.00" waitingCount="0" stopTime="0.00" timeLoss="2.94" rerouteNo="0" devices="tripinfo_448" vType="Car" speedFactor="1.92" vaporized=""/>
    <tripinfo id="450" depart="12.20" departLane="23182965#0.13_3" departPos="0.00" departPosLat="0.00" departSpeed="12.22" departDelay="0.00" arrival="21.30" arrivalLane="207979569#0_4" arrivalPos="65.83" arrivalPosLat="0.43" arrivalSpeed="26.06" duration="9.10" routeLength="175.57" waitingTime="0.00" waitingCount="0" stopTime="0.00" timeLoss="2.38" rerouteNo="0" devices="tripinfo_450" vType="Car" speedFactor="1.88" vaporized=""/>
    <tripinfo id="480" depart="12.30" departLane="23182965#0.13_1" departPos="0.00" departPosLat="0.00" departSpeed="10.25" departDelay="1.10" arrival="21.90" arrivalLane="207979569#0_2" arrivalPos="65.83" arrivalPosLat="-1.05" arrivalSpeed="23.01" duration="9.60" routeLength="175.57" waitingTime="0.00" waitingCount="0" stopTime="0.00" timeLoss="1.96" rerouteNo="0" devices="tripinfo_480" vType="Motorcycle" speedFactor="1.66" vaporized=""/>
    <tripinfo id="527" depart="14.40" departLane="23182965#0.13_2" departPos="0.00" departPosLat="0.00" departSpeed="17.17" departDelay="0.00" arrival="22.00" arrivalLane="207979569#0_2" arrivalPos="65.83" arrivalPosLat="0.56" arrivalSpeed="26.10" duration="7.60" routeLength="175.57" waitingTime="0.00" waitingCount="0" stopTime="0.00" timeLoss="0.90" rerouteNo="0" devices="tripinfo_527" vType="Motorcycle" speedFactor="1.89" vaporized=""/>
    <tripinfo id="459" depart="13.60" departLane="23182965#0.13_4" departPos="0.00" departPosLat="0.00" departSpeed="9.89" departDelay="0.00" arrival="22.50" arrivalLane="207979569#0_4" arrivalPos="65.83" arrivalPosLat="0.52" arrivalSpeed="27.21" duration="8.90" routeLength="175.57" waitingTime="0.00" waitingCount="0" stopTime="0.00" timeLoss="2.38" rerouteNo="0" devices="tripinfo_459" vType="Car" speedFactor="1.96" vaporized=""/>
    <tripinfo id="357" depart="8.00" departLane="23182965#0.13_1" departPos="0.00" departPosLat="0.00" departSpeed="6.19" departDelay="0.00" arrival="22.90" arrivalLane="207979569#0_1" arrivalPos="65.83" arrivalPosLat="0.39" arrivalSpeed="12.18" duration="14.90" routeLength="175.57" waitingTime="0.00" waitingCount="0" stopTime="0.00" timeLoss="0.80" rerouteNo="0" devices="tripinfo_357" vType="Heavy" speedFactor="0.90" vaporized=""/>
    <tripinfo id="463" depart="14.00" departLane="23182965#0.13_3" departPos="0.00" departPosLat="0.00" departSpeed="10.78" departDelay="0.00" arrival="23.20" arrivalLane="207979569#0_3" arrivalPos="65.83" arrivalPosLat="0.60" arrivalSpeed="24.35" duration="9.20" routeLength="175.57" waitingTime="0.00" waitingCount="0" stopTime="0.00" timeLoss="1.96" rerouteNo="0" devices="tripinfo_463" vType="Taxi" speedFactor="1.76" vaporized=""/>
    <tripinfo id="431" depart="13.20" departLane="23182965#0.13_1" departPos="0.00" departPosLat="0.00" departSpeed="7.31" departDelay="0.00" arrival="23.40" arrivalLane="207979569#0_2" arrivalPos="65.83" arrivalPosLat="0.41" arrivalSpeed="26.29" duration="10.20" routeLength="175.57" waitingTime="0.00" waitingCount="0" stopTime="0.00" timeLoss="3.52" rerouteNo="0" devices="tripinfo_431" vType="Car" speedFactor="1.89" vaporized=""/>
    <tripinfo id="508" depart="16.00" departLane="23182965#0.13_4" departPos="0.00" departPosLat="0.00" departSpeed="13.00" departDelay="0.00" arrival="23.80" arrivalLane="207979569#0_4" arrivalPos="65.83" arrivalPosLat="0.25" arrivalSpeed="27.53" duration="7.80" routeLength="175.57" waitingTime="0.00" waitingCount="0" stopTime="0.00" timeLoss="1.41" rerouteNo="0" devices="tripinfo_508" vType="Car" speedFactor="1.99" vaporized=""/>
    <tripinfo id="501" depart="15.20" departLane="23182965#0.13_3" departPos="0.00" departPosLat="0.00" departSpeed="11.25" departDelay="0.20" arrival="24.30" arrivalLane="207979569#0_3" arrivalPos="65.83" arrivalPosLat="0.40" arrivalSpeed="27.29" duration="9.10" routeLength="175.57" waitingTime="0.00" waitingCount="0" stopTime="0.00" timeLoss="2.68" rerouteNo="0" devices="tripinfo_501" vType="Car" speedFactor="1.98" vaporized=""/>
    <tripinfo id="367" depart="10.60" departLane="23182965#0.13_1" departPos="0.00" departPosLat="0.00" departSpeed="6.42" departDelay="0.00" arrival="24.60" arrivalLane="207979569#0_1" arrivalPos="65.83" arrivalPosLat="-0.68" arrivalSpeed="18.76" duration="14.00" routeLength="175.57" waitingTime="0.00" waitingCount="0" stopTime="0.00" timeLoss="7.52" rerouteNo="0" devices="tripinfo_367" vType="Car" speedFactor="1.96" vaporized=""/>
    <tripinfo id="534" depart="15.40" departLane="23182965#0.13_2" departPos="0.00" departPosLat="0.00" departSpeed="16.03" departDelay="0.20" arrival="25.00" arrivalLane="207979569#0_2" arrivalPos="65.83" arrivalPosLat="0.59" arrivalSpeed="25.84" duration="9.60" routeLength="175.57" waitingTime="0.00" waitingCount="0" stopTime="0.00" timeLoss="2.78" rerouteNo="0" devices="tripinfo_534" vType="Motorcycle" speedFactor="1.86" vaporized=""/>
    <tripinfo id="510" depart="18.00" departLane="23182965#0.13_4" departPos="0.00" departPosLat="0.00" departSpeed="12.00" departDelay="0.00" arrival="25.50" arrivalLane="207979569#0_4" arrivalPos="65.83" arrivalPosLat="0.39" arrivalSpeed="27.60" duration="7.50" routeLength="175.57" waitingTime="0.00" waitingCount="0" stopTime="0.00" timeLoss="1.09" rerouteNo="0" devices="tripinfo_510" vType="Car" speedFactor="1.99" vaporized=""/>
    <tripinfo id="522" depart="18.40" departLane="23182965#0.13_3" departPos="0.00" departPosLat="0.00" departSpeed="15.17" departDelay="0.00" arrival="26.00" arrivalLane="207979569#0_3" arrivalPos="65.83" arrivalPosLat="0.50" arrivalSpeed="25.86" duration="7.60" routeLength="175.57" waitingTime="0.00" waitingCount="0" stopTime="0.00" timeLoss="0.76" rerouteNo="0" devices="tripinfo_522" vType="Car" speedFactor="1.87" vaporized=""/>
    <tripinfo id="471" depart="16.60" departLane="23182965#0.13_2" departPos="0.00" departPosLat="0.00" departSpeed="10.31" departDelay="0.00" arrival="26.10" arrivalLane="207979569#0_2" arrivalPos="65.83" arrivalPosLat="0.45" arrivalSpeed="27.10" duration="9.50" routeLength="175.57" waitingTime="0.00" waitingCount="0" stopTime="0.00" timeLoss="2.98" rerouteNo="0" devices="tripinfo_471" vType="Car" speedFactor="1.95" vaporized=""/>
    <tripinfo id="440" depart="14.60" departLane="23182965#0.13_0" departPos="0.00" departPosLat="0.00" departSpeed="8.47" departDelay="0.00" arrival="27.50" arrivalLane="207979566#1_0" arrivalPos="149.34" arrivalPosLat="-0.47" arrivalSpeed="36.31" duration="12.90" routeLength="253.51" waitingTime="0.00" waitingCount="0" stopTime="0.00" timeLoss="5.14" rerouteNo="0" devices="tripinfo_440" vType="Car" speedFactor="1.94" vaporized=""/>
    <tripinfo id="542" depart="19.60" departLane="23182965#0.13_3" departPos="0.00" departPosLat="0.00" departSpeed="14.17" departDelay="0.00" arrival="28.20" arrivalLane="207979569#0_3" arrivalPos="65.83" arrivalPosLat="0.54" arrivalSpeed="22.06" duration="8.60" routeLength="175.57" waitingTime="0.00" waitingCount="0" stopTime="0.00" timeLoss="0.61" rerouteNo="0" devices="tripinfo_542" vType="Motorcycle" speedFactor="1.59" vaporized=""/>
    <tripinfo id="553" depart="20.40" departLane="23182965#0.13_4" departPos="0.00" departPosLat="0.00" departSpeed="14.64" departDelay="0.00" arrival="28.20" arrivalLane="207979569#0_4" arrivalPos="65.83" arrivalPosLat="0.20" arrivalSpeed="26.26" duration="7.80" routeLength="175.57" waitingTime="0.00" waitingCount="0" stopTime="0.00" timeLoss="1.12" rerouteNo="0" devices="tripinfo_553" vType="Motorcycle" speedFactor="1.90" vaporized=""/>
    <tripinfo id="488" depart="16.00" departLane="23182965#0.13_0" departPos="0.00" departPosLat="0.00" departSpeed="8.33" departDelay="0.00" arrival="29.40" arrivalLane="207979566#1_0" arrivalPos="149.34" arrivalPosLat="-0.69" arrivalSpeed="36.22" duration="13.40" routeLength="253.51" waitingTime="0.00" waitingCount="0" stopTime="0.00" timeLoss="5.76" rerouteNo="0" devices="tripinfo_488" vType="Car" speedFactor="1.97" vaporized=""/>
    <tripinfo id="538" depart="21.60" departLane="23182965#0.13_4" departPos="0.00" departPosLat="0.00" departSpeed="13.97" departDelay="0.00" arrival="29.40" arrivalLane="207979569#0_4" arrivalPos="65.83" arrivalPosLat="0.34" arrivalSpeed="26.15" duration="7.80" routeLength="175.57" waitingTime="0.00" waitingCount="0" stopTime="0.00" timeLoss="1.03" rerouteNo="0" devices="tripinfo_538" vType="Car" speedFactor="1.88" vaporized=""/>
    <tripinfo id="496" depart="19.80" departLane="23182965#0.13_2" departPos="0.00" departPosLat="0.00" departSpeed="9.61" departDelay="0.00" arrival="29.50" arrivalLane="207979569#0_2" arrivalPos="65.83" arrivalPosLat="0.68" arrivalSpeed="19.42" duration="9.70" routeLength="175.57" waitingTime="0.00" waitingCount="0" stopTime="0.00" timeLoss="0.58" rerouteNo="0" devices="tripinfo_496" vType="Medium" speedFactor="1.40" vaporized=""/>
    <tripinfo id="474" depart="20.60" departLane="23182965#0.13_1" departPos="0.00" departPosLat="0.00" departSpeed="8.83" departDelay="0.00" arrival="29.60" arrivalLane="207979569#0_1" arrivalPos="65.83" arrivalPosLat="0.16" arrivalSpeed="22.12" duration="9.00" routeLength="175.57" waitingTime="0.00" waitingCount="0" stopTime="0.00" timeLoss="0.99" rerouteNo="0" devices="tripinfo_474" vType="Bus" speedFactor="1.59" vaporized=""/>
    <tripinfo id="517" depart="22.20" departLane="23182965#0.13_2" departPos="0.00" departPosLat="0.00" departSpeed="11.39" departDelay="0.00" arrival="30.20" arrivalLane="207979569#0_3" arrivalPos="65.83" arrivalPosLat="0.41" arrivalSpeed="26.84" duration="8.00" routeLength="175.57" waitingTime="0.00" waitingCount="0" stopTime="0.00" timeLoss="1.49" rerouteNo="0" devices="tripinfo_517" vType="Car" speedFactor="1.94" vaporized=""/>
    <tripinfo id="560" depart="22.40" departLane="23182965#0.13_3" departPos="0.00" departPosLat="0.00" departSpeed="14.47" departDelay="0.00" arrival="31.10" arrivalLane="207979569#0_3" arrivalPos="65.83" arrivalPosLat="0.73" arrivalSpeed="24.44" duration="8.70" routeLength="175.57" waitingTime="0.00" waitingCount="0" stopTime="0.00" timeLoss="1.58" rerouteNo="0" devices="tripinfo_560" vType="Motorcycle" speedFactor="1.78" vaporized=""/>
    <tripinfo id="487" depart="17.80" departLane="23182965#0.13_0" departPos="0.00" departPosLat="0.00" departSpeed="7.86" departDelay="0.00" arrival="31.50" arrivalLane="207979566#1_0" arrivalPos="149.34" arrivalPosLat="-0.45" arrivalSpeed="36.35" duration="13.70" routeLength="253.51" waitingTime="0.00" waitingCount="0" stopTime="0.00" timeLoss="5.99" rerouteNo="0" devices="tripinfo_487" vType="Car" speedFactor="1.96" vaporized=""/>
    <tripinfo id="493" depart="23.60" departLane="23182965#0.13_1" departPos="0.00" departPosLat="0.00" departSpeed="10.08" departDelay="0.00" arrival="31.80" arrivalLane="207979569#0_1" arrivalPos="65.83" arrivalPosLat="-0.62" arrivalSpeed="26.87" duration="8.20" routeLength="175.57" waitingTime="0.00" waitingCount="0" stopTime="0.00" timeLoss="1.63" rerouteNo="0" devices="tripinfo_493" vType="Car" speedFactor="1.95" vaporized=""/>
    <tripinfo id="525" depart="23.70" departLane="23182965#0.13_2" departPos="0.00" departPosLat="0.00" departSpeed="12.75" departDelay="0.50" arrival="32.70" arrivalLane="207979569#0_3" arrivalPos="65.83" arrivalPosLat="0.39" arrivalSpeed="22.18" duration="9.00" routeLength="175.57" waitingTime="0.00" waitingCount="0" stopTime="0.00" timeLoss="1.16" rerouteNo="0" devices="tripinfo_525" vType="Taxi" speedFactor="1.61" vaporized=""/>
    <tripinfo id="492" depart="25.80" departLane="23182965#0.13_4" departPos="0.00" departPosLat="0.00" departSpeed="13.67" departDelay="0.00" arrival="33.30" arrivalLane="207979569#0_4" arrivalPos="65.83" arrivalPosLat="-0.07" arrivalSpeed="26.36" duration="7.50" routeLength="175.57" waitingTime="0.00" waitingCount="0" stopTime="0.00" timeLoss="0.79" rerouteNo="0" devices="tripinfo_492" vType="Car" speedFactor="1.90" vaporized=""/>
    <tripinfo id="486" depart="23.80" departLane="23182965#0.13_0" departPos="0.00" departPosLat="0.00" departSpeed="7.14" departDelay="0.00" arrival="33.60" arrivalLane="207979569#0_1" arrivalPos="65.83" arrivalPosLat="-0.02" arrivalSpeed="23.80" duration="9.80" routeLength="175.57" waitingTime="0.00" waitingCount="0" stopTime="0.00" timeLoss="2.43" rerouteNo="0" devices="tripinfo_486" vType="Motorcycle" speedFactor="1.72" vaporized=""/>
    <tripinfo id="502" depart="25.60" departLane="23182965#0.13_2" departPos="0.00" departPosLat="0.00" departSpeed="11.97" departDelay="0.00" arrival="34.50" arrivalLane="207979569#0_3" arrivalPos="65.83" arrivalPosLat="0.03" arrivalSpeed="22.49" duration="8.90" routeLength="175.57" waitingTime="0.00" waitingCount="0" stopTime="0.00" timeLoss="1.13" rerouteNo="0" devices="tripinfo_502" vType="Motorcycle" speedFactor="1.64" vaporized=""/>
    <tripinfo id="503" depart="27.80" departLane="23182965#0.13_2" departPos="0.00" departPosLat="0.00" departSpeed="13.22" departDelay="0.00" arrival="35.90" arrivalLane="207979569#0_3" arrivalPos="65.83" arrivalPosLat="0.42" arrivalSpeed="27.44" duration="8.10" routeLength="175.57" waitingTime="0.00" waitingCount="0" stopTime="0.00" timeLoss="1.66" rerouteNo="0" devices="tripinfo_503" vType="Car" speedFactor="1.98" vaporized=""/>
    <tripinfo id="559" depart="28.60" departLane="23182965#0.13_3" departPos="0.00" departPosLat="0.00" departSpeed="10.94" departDelay="0.00" arrival="37.60" arrivalLane="207979569#0_3" arrivalPos="65.83" arrivalPosLat="-0.24" arrivalSpeed="24.37" duration="9.00" routeLength="175.57" waitingTime="0.00" waitingCount="0" stopTime="0.00" timeLoss="1.81" rerouteNo="0" devices="tripinfo_559" vType="Heavy" speedFactor="1.76" vaporized=""/>
    <tripinfo id="582" depart="30.60" departLane="23182965#0.13_4" departPos="0.00" departPosLat="0.00" departSpeed="14.72" departDelay="0.00" arrival="37.90" arrivalLane="207979569#0_4" arrivalPos="65.83" arrivalPosLat="0.10" arrivalSpeed="26.93" duration="7.30" routeLength="175.57" waitingTime="0.00" waitingCount="0" stopTime="0.00" timeLoss="0.74" rerouteNo="0" devices="tripinfo_582" vType="Car" speedFactor="1.95" vaporized=""/>
    <tripinfo id="513" depart="25.80" departLane="23182965#0.13_0" departPos="0.00" departPosLat="0.00" departSpeed="7.92" departDelay="0.00" arrival="39.00" arrivalLane="207979566#1_0" arrivalPos="149.34" arrivalPosLat="0.07" arrivalSpeed="34.59" duration="13.20" routeLength="253.51" waitingTime="0.00" waitingCount="0" stopTime="0.00" timeLoss="5.51" rerouteNo="0" devices="tripinfo_513" vType="Taxi" speedFactor="1.97" vaporized=""/>